 1008
Geometry Step: 3350
    C      2.02828331     24.50887820     21.93591789      3.98191519
    C      1.89424721     23.22903277     21.36656393      4.08741949
    C      2.99331237     22.38837885     21.21608122      4.13645279
    C      4.26557614     22.79855380     21.66223842      3.80601651
    C     -0.71512427     31.37300473     21.39780621      4.12898278
    C     -0.88862698     29.99517031     21.47094656      4.08722779
    H      2.87086697     21.39879958     20.77929757      0.92654363
    H     -1.83386746     29.56281839     21.14716390      0.92888018
    H     -1.51681871     32.00009901     21.01199213      0.92648451
    C     -1.52122465     25.76800403     22.39136508      4.06431109
    C     -1.34738609     27.14499700     22.26645854      4.10209004
    C     -0.06570541     27.68651614     22.05090632      3.95359093
    C      1.02146315     26.80271769     21.95498371      4.11791075
    C      0.85909307     25.41247496     22.06578883      3.95108526
    C     -0.43289860     24.90325324     22.28986870      4.09587535
    H      0.91882766     22.89794555     21.01371633      0.92890057
    N      5.37451933     21.93245463     21.61613656      5.26415344
    C     18.64684155     13.71280221     20.84217919      3.97274268
    C     23.66468834     13.94556064     21.00161257      3.97307339
    C     18.52639155     14.95760939     20.19269834      4.09092311
    C     17.29439530     15.58620095     20.06323164      4.11596377
    C     16.12969407     15.00644219     20.60552099      3.80620280
    C     24.88274221     13.37048231     20.58663831      4.09120155
    C     26.05083128     14.11945600     20.52633622      4.11351371
    C     26.05786863     15.47706575     20.90652824      3.80398606
    H     17.22129341     16.54412196     19.55240878      0.92165246
    H     24.90796810     12.32714483     20.27773988      0.92912938
    H     26.97959910     13.65643459     20.19927833      0.92202690
    C     22.41534369     13.14482160     21.02998340      3.95254552
    C     22.45676832     11.74237489     21.14888661      4.09359457
    C     21.27866920     10.99885776     21.16400828      4.06515738
    C     20.03969334     11.62853855     21.06586694      4.10127232
    C     19.95962135     13.02927629     20.94967775      3.95346280
    C     21.15760738     13.76372005     20.92942861      4.11791117
    H     19.40693303     15.42396790     19.75460403      0.92837309
    N     27.25900506     16.20001835     20.76642091      5.28192272
    N     14.89878545     15.66057777     20.39466492      5.27969495
    C     11.24711568     17.77049886     19.73929340      4.09513134
    C     12.43150877     17.06042168     19.89386474      4.06914370
    H     11.12695105     18.44116121     18.89019918      0.92532128
    H     13.23379999     17.16450006     19.16591473      0.91431872
    C      6.80876576     20.31548772     20.56277096      3.98453549
    C      7.30178463     19.73557951     19.37906769      4.08730600
    C      8.39973184     18.87861581     19.40858774      4.09172827
    H      6.82821273     19.97589818     18.42766061      0.92855688
    H      8.76949857     18.44590133     18.48066840      0.92524665
    C      5.68237338     21.26001365     20.55398235      3.88799373
    H      5.13778035     21.39041292     19.59249057      0.96170065
    C     -0.04512983     35.63703705     21.85646501      3.97807608
    C     -1.11637133     36.50337903     22.14369811      4.08492836
    C     -0.96508790     37.88117550     22.04517442      4.09256064
    H     -2.07283323     36.08427402     22.45479278      0.92994519
    H     -1.80518122     38.52814909     22.29095009      0.92836691
    C     -0.21509016     34.18657461     21.98410735      3.88123069
    H     -1.20207710     33.84370210     22.36595461      0.96208213
    C     30.92109449     18.29501622     20.21881167      4.09589261
    C     29.74089451     17.58301636     20.38315185      4.06978919
    C      0.13737885     29.15193701     21.93929047      3.97297926
    C      4.40254886     24.06476390     22.26441272      4.11706801
    C      3.30556516     24.91024864     22.37505620      4.08257661
    C      1.36275091     29.74490135     22.30305338      4.08269144
    C      1.55337833     31.11870812     22.21393990      4.11823376
    C      0.50686944     31.95951799     21.78785226      3.80681069
    H      5.37894026     24.38111576     22.62401021      0.91756690
    H      3.42837089     25.88426877     22.84579446      0.92843909
    H      2.17095370     29.12121330     22.68058289      0.92771475
    H      2.50246764     31.55878947     22.51405274      0.92544748
    N      0.73360227     33.34960833     21.69817027      5.27973805
    C     16.24111570     13.76156969     21.26057986      4.12332688
    C     17.47655459     13.13281840     21.37088181      4.08335579
    C     24.84298005     16.06206461     21.32397543      4.12326679
    C     23.67607613     15.30691756     21.36707117      4.08578455
    H     15.35296687     13.27802832     21.66354889      0.92773895
    H     17.53846592     12.17924268     21.89257195      0.92890367
    H     24.81140278     17.11580805     21.59514165      0.92759707
    H     22.75543613     15.78107057     21.70412443      0.93144796
    C     12.63193175     16.22207576     21.00855825      3.98290134
    C     11.58262747     16.08416374     21.93625269      4.08397941
    C     10.40415079     16.80662923     21.78944147      4.09315968
    C     10.22264985     17.68244992     20.70205900      3.95997558
    C      9.02201228     18.54927786     20.62715767      3.95856422
    C      8.50725743     19.11056228     21.81138474      4.09888468
    C      7.43075747     19.98370685     21.78043488      4.06979532
    H      8.98723269     18.88342886     22.75920154      0.91734401
    H      7.05693253     20.43095918     22.69948010      0.91002722
    H     11.70906585     15.42254436     22.79258082      0.92586217
    C     13.91583027     15.54760028     21.23327833      3.88493198
    H     14.01022295     14.97907964     22.18462122      0.95983361
    C      0.26839493     38.45044443     21.67182022      3.95620744
    C      1.33736065     37.57975115     21.37821846      4.09344988
    C      1.18291698     36.20217735     21.46201273      4.06495916
    H      2.29585352     37.99209880     21.06814048      0.92699406
    H      2.01590250     35.54004874     21.23352223      0.91675383
    C     28.76520114     18.00247361     21.30845204      3.97631452
    C     29.01297361     19.17334355     22.04891054      4.08387535
    C     30.19363211     19.88873828     21.88036440      4.08817440
    C     31.17999447     19.46091928     20.96902199      3.96202000
    C     27.53000053     17.23405308     21.50162586      3.87734853
    H     26.85726776     17.57716270     22.31781198      0.96050385
    H      9.61226484     16.69716072     22.52834372      0.92573846
    C      3.47209192     53.23199554     21.02779035      3.96988753
    C      1.34938225     46.97216097     20.85369670      4.13129791
    C      1.49494716     48.35396935     20.80275379      4.08906050
    C      4.57340029     52.45066599     20.62253277      4.09242097
    C      5.84756502     52.99514027     20.51875800      4.11451006
    C      6.08130409     54.34914220     20.83179899      3.80957084
    H      2.42511090     48.77063425     20.42012982      0.93009228
    H      2.15752222     46.33030794     20.50725798      0.92757650
    H      4.42395670     51.40628873     20.35487860      0.92915848
    H      6.68134950     52.37357476     20.19872090      0.92125891
    C      2.10413895     52.65784203     21.07239624      3.95484543
    C      1.90660045     51.27082060     21.18627273      4.11728638
    C      0.62687782     50.69106819     21.15075802      3.95067469
    C     -0.48544645     51.54552235     21.03099580      4.09375263
    C     -0.30978236     52.92495434     20.94482146      4.06602544
    C      0.96749785     53.48129924     20.95709941      4.09985488
    N      7.38560573     54.86082104     20.65284814      5.28192855
    C     -0.64707135     40.76903340     21.32826777      4.09691022
    C     -0.49803997     42.14938585     21.32690886      4.06724444
    C     11.40109150     56.43804680     20.29922990      4.09517860
    C     10.12663363     55.88309055     20.37144392      4.06819898
    C      0.45906694     49.21772076     21.21083087      3.97790362
    C     -0.74621288     48.63276999     21.64887588      4.08390753
    C     -0.90917926     47.25316637     21.68711062      4.11280378
    C      0.14636453     46.39783309     21.31537385      3.80331522
    C      4.98393140     55.13883608     21.23985022      4.12368795
    C      3.71227509     54.58614841     21.33659296      4.08361101
    H     -1.56482570     49.27038146     21.97690877      0.92805574
    H     -1.84092892     46.82263359     22.04741648      0.91987684
    H      5.12396489     56.19529312     21.46162742      0.92871163
    H      2.88937987     55.21682302     21.66843123      0.92821502
    N     -0.05899979     45.00328477     21.33881740      5.27309791
    C      0.74322445     42.74026684     21.63140447      3.97734324
    C      1.83146906     41.89590323     21.92125489      4.08550616
    C      1.68506471     40.51367052     21.90861542      4.08566615
    C      0.43938452     39.92052569     21.62395777      3.95762969
    C      0.90601001     44.19687707     21.65345861      3.87888147
    H      1.90498991     44.57086190     21.97214162      0.96746503
    C      9.11636030     56.49549175     21.13965539      3.98190807
    C      9.41847680     57.70135694     21.79825897      4.08641184
    C     10.69483179     58.24432896     21.74130781      4.09337733
    C     11.71534971     57.61304935     21.00832853      3.95984990
    C      7.78311097     55.90858728     21.30620725      3.88355239
    H      7.13873800     56.41022992     22.06251415      0.96389074
    C     33.25847157     20.08609746     19.67602370      4.09205923
    H     32.86543557     19.57554689     18.79904138      0.92492190
    C     32.48036242     20.16203099     20.84884082      3.95879142
    H     32.42639133     20.96911981     22.85417598      0.92112776
    C     33.00897278     20.87866267     21.94057969      4.09619752
    C     34.52558509     20.65822673     19.61706754      4.08692886
    C     41.07151368     23.52863969     22.00616791      3.98376046
    C     43.49760174     29.68017338     21.50191368      4.13044664
    C     43.28066246     28.30747500     21.55336545      4.08890388
    C     40.08262100     24.21308415     21.27456959      4.08740733
    C     38.78543148     23.71623145     21.17050315      4.13991206
    C     38.42962163     22.52214036     21.82659165      3.80840070
    H     42.33924690     27.91320529     21.17503606      0.92993888
    H     42.73425142     30.33235076     21.08101714      0.92742158
    H     40.33883865     25.13750868     20.75926942      0.92936713
    H     38.03327193     24.25942859     20.60130830      0.92580142
    C     42.45719049     24.05491307     22.10163132      3.95189453
    C     42.70852832     25.43677471     22.07011817      4.11982825
    C     44.01307882     25.96099691     22.12270287      3.95216772
    C     45.08460953     25.05197535     22.22100352      4.09606481
    C     44.85029275     23.67960401     22.27216172      4.06616416
    C     43.55186743     23.17801689     22.21333381      4.10044502
    N     37.09879889     22.04962935     21.82341947      5.26255852
    C     44.26913353     33.92413145     22.00286597      3.97869877
    C     43.22694640     34.81577279     22.31833807      4.08455946
    C     43.40465239     36.18953959     22.20798705      4.08820167
    H     42.27273130     34.41883799     22.66316915      0.92890917
    H     42.58829356     36.85519962     22.48190637      0.92823668
    C     44.05928906     32.47851603     22.12815891      3.87935968
    H     43.05083117     32.16644701     22.47870166      0.96290826
    C     35.07778280     21.30385749     20.73873317      3.98489436
    H     35.11394014     20.57562220     18.70387623      0.92827686
    C     36.46448292     21.79777247     20.72534213      3.88517838
    H     36.95678729     21.87950050     19.73095783      0.96107466
    C     44.25469429     27.42542199     22.06346807      3.97673926
    C     45.47411090     27.98622472     22.49655679      4.08408159
    C     45.71092194     29.35418055     22.42872445      4.11518089
    C     44.71538023     30.22965945     21.95446702      3.80398978
    C     39.40567477     21.84073936     22.57813294      4.12011079
    C     40.70715238     22.32555895     22.64202611      4.07998114
    H     46.24960140     27.34094896     22.90391747      0.92771185
    H     46.65434037     29.76280297     22.78496294      0.92250755
    H     39.13615954     20.92222609     23.09416723      0.91713213
    H     41.44449160     21.78852890     23.23582678      0.92539305
    N     44.98949749     31.61190399     21.87297680      5.27844272
    C     44.63335710     36.73156285     21.78146872      3.95479860
    C     45.67658666     35.83536841     21.46986161      4.09176433
    C     45.49839308     34.46157600     21.57411139      4.07112203
    H     46.63300809     36.22395846     21.12465013      0.92725412
    H     46.31136034     33.78149819     21.32683103      0.91685027
    C     34.28437455     21.42452551     21.89397991      4.07038533
    H     34.69209548     21.94030512     22.76072614      0.91104678
    C     13.85059491     58.33585935     19.85974964      4.09138240
    H     13.44951577     57.99229964     18.90791366      0.92438276
    C     13.08232224     58.19226733     21.02855893      3.95762988
    H     13.05192666     58.51791358     23.16504211      0.91859144
    C     13.62254446     58.64662908     22.24742002      4.09568515
    C     15.09558377     58.95866964     19.90276210      4.08717799
    C     26.10316676     62.87469916     22.20007386      3.97775269
    C     21.08412561     62.69279088     22.35407029      3.98136119
    C     26.24099083     61.68798251     21.45595599      4.08746334
    C     27.47585480     61.06005616     21.32193856      4.13896159
    C     28.61694439     61.59137609     21.95745688      3.81111634
    C     19.93894277     63.17126362     21.69136845      4.08512201
    C     18.77057761     62.41725514     21.63776225      4.13491253
    C     18.70198494     61.16785193     22.28460147      3.80362965
    H     27.56190817     60.14248287     20.74221339      0.92711859
    H     19.97688919     64.13182749     21.18016268      0.92865812
    H     17.89639168     62.79549765     21.11089979      0.92631296
    C     22.34219876     63.48186367     22.35782651      3.95218847
    C     22.30946784     64.88738625     22.40225273      4.09557130
    C     23.49537213     65.61948623     22.40902011      4.06384163
    C     24.72837736     64.97147762     22.35962270      4.10288898
    C     24.79325208     63.56741867     22.29480511      3.95220515
    C     23.59064591     62.84119204     22.29903807      4.11933890
    H     25.37317230     61.26746276     20.95039786      0.92767559
    N     17.50609985     60.41694759     22.27824006      5.26361550
    N     29.86553421     60.93729937     21.89409696      5.27216555
    C     42.87522616     52.10654471     20.81068807      3.97452216
    C     43.01672184     53.40211336     20.27483015      4.09232038
    C     41.91332075     54.22111957     20.06382814      4.11724994
    C     40.61881515     53.78445950     20.40757039      3.80810121
    C     45.74908927     45.25392506     20.78950495      4.13164189
    C     45.88609136     46.63706600     20.73438201      4.08971774
    H     42.04501132     55.21807067     19.64841545      0.92082844
    H     46.81566857     47.06170151     20.35881179      0.92934553
    H     46.56289477     44.61646851     20.44821144      0.92741068
    C     46.44100063     50.92737723     21.35034102      4.06604436
    C     46.29029196     49.54276814     21.31572725      4.10225770
    C     45.01767872     48.96800012     21.13479379      3.95340438
    C     43.91680878     49.82585605     20.97610867      4.11592150
    C     44.05337709     51.22467038     21.00058366      3.95176396
    C     45.33813487     51.76509723     21.19661125      4.09414445
    H     44.00444404     53.76172161     19.99199071      0.92832217
    N     39.52462894     54.64292222     20.15600681      5.28162097
    C     36.11868702     57.29418630     19.67216162      4.09459933
    C     37.23008755     56.45921361     19.75227689      4.06816700
    H     36.09358981     58.09177111     18.93130504      0.92533070
    H     38.07142064     56.59835456     19.07613981      0.91520175
    C     31.57051058     59.70582114     20.70154515      3.98698447
    C     32.06737328     59.24457566     19.46765905      4.08734994
    C     33.21422975     58.45645987     19.40769163      4.09206968
    H     31.53820994     59.50036950     18.55017773      0.92853999
    H     33.57266163     58.09377380     18.44602900      0.92434567
    C     30.32403325     60.47923790     20.77228170      3.88462909
    H     29.79248940     60.64911717     19.80951467      0.96309273
    C     43.72732030     39.05338599     21.43464485      4.09715913
    C     43.89072126     40.43111306     21.38390191      4.06925036
    C     15.62784024     59.42409788     21.11965059      3.98636402
    H     15.66680736     59.09086305     18.98442434      0.92824434
    C     16.92092183     60.12128976     21.16258126      3.88608092
    H     17.37609157     60.37729340     20.18002833      0.96282679
    C     28.47703393     62.75021436     22.74546485      4.11887084
    C     27.24697913     63.39182261     22.83899287      4.08253304
    C     19.82282368     60.70716684     23.00005677      4.12200255
    C     21.00152430     61.44601278     23.00335512      4.08528245
    H     29.34794697     63.15688832     23.25442317      0.91822448
    H     27.15971426     64.29093243     23.44627608      0.92561848
    H     19.77360280     59.74947190     23.51334780      0.92039335
    H     21.86763444     61.06425962     23.54180203      0.93109091
    C     44.84358569     47.49377398     21.13842178      3.97419801
    C     40.46733075     52.48567508     20.93926918      4.12359849
    C     41.57567520     51.67006512     21.13582664      4.08344829
    C     43.63857722     46.90519966     21.57129871      4.08328881
    C     43.48724413     45.52447679     21.61855528      4.11086921
    C     44.55013520     44.67387572     21.25506649      3.80630535
    H     39.47562695     52.11053444     21.18502808      0.92636771
    H     41.43299641     50.67992373     21.56559644      0.92844893
    H     42.81968217     47.54088770     21.90299459      0.92718618
    H     42.55893555     45.08839278     21.98127616      0.92022828
    N     44.35176337     43.27812443     21.29794220      5.27404354
    C     37.29374575     55.43859623     20.72144442      3.98085805
    C     36.19089608     55.26307326     21.57645016      4.08436906
    C     35.09625377     56.11403824     21.51821092      4.09142552
    C     35.04747005     57.15673912     20.57542249      3.95996547
    C     33.88388536     58.07929670     20.58509333      3.95677481
    C     33.40250929     58.56631328     21.81567962      4.09691903
    C     32.27642900     59.37531924     21.87393551      4.06641230
    H     33.93053212     58.30832817     22.73161603      0.92043923
    H     31.91338040     59.74859222     22.82920812      0.90907437
    H     36.21206490     54.45468742     22.30521647      0.92693358
    C     38.47090630     54.58561629     20.91029802      3.88270041
    H     38.41966557     53.90475249     21.78842453      0.96127947
    C     45.15349012     41.01696363     21.59912188      3.97629252
    C     46.24936100     40.16641452     21.83622432      4.08476622
    C     46.08755910     38.78575395     21.86832901      4.08790395
    C     44.82020521     38.19797382     21.68608377      3.95826553
    C     45.32488149     42.47410083     21.59415919      3.88328119
    H     46.33263267     42.84926609     21.88254893      0.96594461
    C     14.87749610     59.23782137     22.29541270      4.06992495
    H     15.28960303     59.58383249     23.24141799      0.90960072
    H     34.26199689     55.96879753     22.20180383      0.92075701
    H      2.77146748     50.62512851     21.32295692      0.93013985
    H     -1.17913889     53.57395096     20.84998131      0.93352000
    H      1.08148643     54.55831811     20.85458155      0.92996457
    H     -1.48998672     51.13032608     20.98710123      0.92915587
    H      2.01334236     27.20156980     21.75239955      0.92805905
    H     -2.20790809     27.80462174     22.36025686      0.93147049
    H     -2.51577613     25.36481153     22.57674542      0.93370202
    H     -0.58145737     23.83164225     22.40762479      0.92981059
    H     23.41163810     11.23199465     21.25423384      0.92917202
    H     21.10873974     14.84649610     20.83660608      0.92913157
    H     21.32695381      9.91495461     21.25841141      0.93382511
    H     19.13203163     11.02859693     21.06407757      0.92998369
    H     31.67078762     17.92879826     19.51988676      0.92651398
    H     28.27007925     19.51825260     22.76750001      0.92929662
    H     30.35294009     20.79370619     22.46349217      0.92613056
    H     46.10932297     25.41566458     22.24622672      0.92976196
    H     45.69162929     22.99225852     22.34851995      0.93382362
    H     41.86166557     26.11893296     22.02881529      0.93071093
    H     43.38740504     22.10251644     22.23038435      0.92938116
    H     42.74027474     38.62775352     21.26342851      0.92682644
    H     43.03812373     41.07939402     21.19111023      0.91536616
    H     47.23472850     40.59949991     22.00548545      0.92994573
    H     46.94948803     38.15354561     22.07255352      0.92721441
    H     42.93471950     49.39335708     20.79675884      0.92770056
    H     47.42825992     51.35881917     21.50925782      0.93374451
    H     47.16097349     48.90457713     21.45437457      0.93156795
    H     45.47281305     52.84336298     21.25020670      0.92915210
    H     25.64565603     65.55692934     22.34758129      0.92987808
    H     23.62635797     61.75401538     22.25436720      0.92963115
    H     21.35425329     65.40502767     22.46383565      0.92891909
    H     23.45839795     66.70694405     22.45504423      0.93338273
    H      8.63998646     58.20570171     22.36830555      0.92419566
    H     10.91107837     59.17402723     22.26321430      0.92342857
    H     12.17713780     55.93851325     19.72147945      0.92521095
    H      9.90132581     54.95560420     19.84863409      0.91509659
    H     -1.61531942     40.33595754     21.08379834      0.92689672
    H     -1.34364546     42.79481816     21.09792502      0.91435164
    H      2.79832760     42.33583143     22.16484396      0.93131270
    H      2.53590745     39.88399650     22.16174722      0.92688261
    H     29.56143179     16.67707488     19.80751970      0.91441363
    C      2.67866316     24.10535344     25.49979918      3.96882887
    C      2.70016843     22.79605203     24.98056006      4.08424210
    C      3.87849582     22.06136494     24.91908560      4.12141366
    C      5.08960018     22.61358980     25.38916686      3.81182263
    C     -0.94486717     30.60322706     24.98416462      4.11345831
    C     -0.93134877     29.21471812     25.02643243      4.08568000
    H      3.87158228     21.06984758     24.47048026      0.92528091
    H     -1.83503629     28.67242483     24.75553851      0.92979824
    H     -1.84569388     31.13173134     24.67880297      0.92401306
    C     -1.00453366     24.93268669     25.81173817      4.06487386
    C     -0.99697182     26.32008646     25.69040531      4.09565301
    C      0.21198246     27.01946681     25.50758639      3.94920452
    C      1.40280015     26.27449073     25.44347834      4.11293438
    C      1.41088193     24.87440884     25.56333672      3.95161098
    C      0.18469954     24.21018793     25.74958901      4.09320829
    H      1.78367808     22.36123960     24.58546741      0.92749255
    N      6.31991587     21.92539845     25.31555982      5.26943439
    C     19.78013815     13.80371134     24.30854043      3.96167287
    C     24.79671870     14.02199077     24.32711810      3.96752069
    C     19.63877448     15.10437003     23.78433505      4.08731321
    C     18.40664816     15.74644680     23.76947831      4.10245360
    C     17.25902388     15.12034714     24.29658782      3.80865415
    C     26.01581920     13.47709773     23.87779307      4.08754278
    C     27.18717439     14.22535247     23.88471604      4.11087384
    C     27.19169228     15.54523938     24.37618985      3.80734709
    H     18.31938537     16.74972550     23.35747156      0.92118206
    H     26.04061834     12.45981958     23.49152408      0.92920329
    H     28.11890647     13.78662216     23.53407834      0.92102429
    C     23.54984972     13.21927784     24.33033284      3.94994549
    C     23.59267898     11.81326554     24.38374752      4.09301760
    C     22.41323483     11.07184301     24.40290647      4.06610211
    C     21.17358735     11.70728365     24.37716953      4.09391934
    C     21.09221547     13.11208521     24.32527936      3.95169704
    C     22.29148721     13.84297391     24.29654751      4.11066722
    H     20.50344714     15.61139876     23.35955392      0.93071644
    N     28.40042629     16.27239115     24.35771844      5.27996459
    N     16.03608731     15.82404608     24.23787231      5.27746101
    C     12.41253632     18.12462572     24.26863132      4.09040138
    C     13.60977361     17.42007968     24.23703001      4.07118457
    H     12.32601762     19.05803260     23.71605005      0.92087837
    H     14.46030501     17.80446594     23.67790524      0.90968674
    C      7.62059324     19.88221392     25.27532799      3.98436591
    C      7.61060277     18.47385593     25.29142820      4.09407566
    C      8.79317816     17.74904284     25.18607977      4.09744415
    H      6.66095214     17.94826789     25.38394236      0.92610454
    H      8.75454956     16.66139825     25.18718459      0.92484407
    C      6.36474000     20.63194108     25.40194717      3.89592688
    H      5.45411879     20.01992015     25.58992300      0.96485034
    C      1.13302993     34.93665652     24.96988566      3.97703771
    C      2.28866397     35.67747883     24.65889486      4.08753926
    C      2.27729650     37.06687757     24.69527891      4.09191082
    H      3.20306516     35.15033431     24.38832615      0.93069479
    H      3.18289715     37.61326411     24.43808196      0.92966072
    C      1.16592383     33.47059487     24.94226197      3.88481837
    H      2.11879531     33.01221506     24.59558479      0.96434460
    C     32.07739573     18.45552963     24.35236048      4.09552736
    C     30.91892157     17.68966214     24.35577328      4.06445819
    C      0.22257472     28.50106113     25.41027488      3.97088935
    C      5.07992779     23.93200953     25.88664334      4.11014739
    C      3.89449105     24.65629680     25.94961716      4.08798110
    C      1.37206910     29.24815636     25.73626818      4.08308007
    C      1.37520822     30.63802539     25.67844457      4.12751581
    C      0.21400747     31.34168002     25.29347047      3.80355834
    H      6.00582532     24.36592863     26.25819620      0.91969912
    H      3.90559355     25.66179635     26.36714158      0.92937031
    H      2.27176161     28.73378743     26.06972922      0.92994643
    H      2.27115821     31.18629163     25.96574618      0.93198707
    N      0.14254837     32.75053890     25.28230801      5.27723408
    C     17.38997567     13.81185472     24.81134762      4.12100044
    C     18.62514157     13.17652387     24.81712476      4.08683239
    C     25.97043534     16.10933748     24.80236783      4.12956517
    C     24.80215269     15.35844751     24.77414583      4.08366323
    H     16.52033028     13.28305121     25.19676242      0.92987059
    H     18.69840698     12.17543825     25.23847961      0.93034364
    H     25.93762757     17.14282943     25.14297904      0.93010826
    H     23.87743008     15.81392184     25.12387221      0.93114140
    C     13.75195238     16.20807195     24.94178877      3.98296586
    C     12.63822777     15.71177062     25.64594339      4.09221159
    C     11.43187760     16.40200100     25.65219087      4.09609813
    C     11.29926067     17.63477484     24.98242717      3.96541045
    C     10.03498907     18.40307891     25.05827188      3.96373724
    C     10.04123496     19.81355973     25.03460820      4.09004405
    C      8.86081731     20.53808985     25.14205264      4.06850535
    H     10.98894347     20.34294173     24.95900918      0.92162234
    H      8.88043754     21.62581526     25.13549963      0.90975894
    H     12.72827087     14.77548572     26.19527674      0.92635798
    C     15.02997832     15.48934814     24.98654279      3.89582615
    H     15.08274751     14.65618982     25.72148856      0.96239068
    C      1.10634568     37.77637225     25.02841927      3.95561790
    C     -0.05544272     37.03084787     25.31665797      4.08671855
    C     -0.04158377     35.64216530     25.29646187      4.06573442
    H     -0.97334719     37.55118634     25.58439710      0.92882501