  954
Geometry Step: 4803
    C     -6.08607930     20.36725423      0.12605905      3.95587421
    H     -5.30359119     18.49008111      0.86958444      0.92671802
    C     -5.08210821     19.53424058      0.65734072      4.09021425
    C     -5.75083514     21.71002852     -0.14908069      4.09636612
    C     -3.80213129     20.02118457      0.90192144      4.08292935
    H     -3.04029081     19.35821432      1.31096385      0.92988484
    C     -4.47495232     22.19671842      0.09457398      4.06829244
    C     -3.47317455     21.36089213      0.62436313      3.97673987
    H     -4.23353158     23.23708408     -0.11409154      0.91475324
    C     -2.12369250     21.87532979      0.88029558      3.87929097
    H     -1.41277606     21.17370844      1.37156549      0.96467994
    N     -1.78541949     23.08640612      0.56403929      5.27481879
    H     -1.10867746     25.54008287      1.27130482      0.92036063
    C     -0.46629649     23.54522756      0.74554089      3.79357751
    C     -0.25116315     24.89635171      1.08729989      4.11810043
    C      0.65022258     22.71377850      0.50871034      4.13743905
    H      0.49897208     21.68189452      0.19639515      0.92730480
    C      1.04058462     25.38599750      1.23755213      4.06712816
    H      1.20448640     26.42352458      1.52315803      0.91649958
    C      1.93703968     23.21755301      0.64758212      4.06705783
    C      2.15774668     24.55647193      1.02238773      4.02566797
    H      2.79784309     22.57483597      0.46970710      0.91851593
    C      3.53570655     25.06270967      1.19700608      3.60162431
    N      3.72527270     26.37145832      1.51868162      5.38906205
    N      4.55887626     24.19052390      1.03258139      5.40848364
    C      5.81683382     24.66767867      1.19231146      3.59971392
    H      5.65396123     22.01400480      0.77162342      0.91847757
    N      6.08134737     25.96673071      1.49742683      5.38858249
    C      6.68670479     22.35796373      0.79081745      4.07199879
    C      6.94153447     23.72507297      1.01277321      4.02636791
    C      7.72688081     21.46241557      0.58941874      4.12021764
    H      7.52139201     20.40672916      0.42456113      0.92121643
    C      8.27878022     24.16338037      1.04057696      4.06756971
    H      8.48134927     25.21924338      1.21139609      0.91515655
    C      9.06692868     21.90250275      0.62733543      3.79457254
    C      9.32939692     23.27209472      0.85003175      4.13100708
    N     10.07629863     20.95712379      0.36575325      5.27812098
    H     10.35620695     23.63337119      0.84909944      0.92550156
    C     11.24663191     21.02327569      0.91987046      3.87555359
    H     11.50831393     21.80655221      1.66457861      0.96086864
    C     12.27398036     20.01436321      0.63795693      3.97631590
    H     13.75707094     20.86731995      1.95902083      0.93063143
    C     13.52924083     20.05194965      1.27276785      4.08403206
    C     12.00777898     18.95069773     -0.24578816      4.06856240
    H     11.04513117     18.91967631     -0.75230949      0.91413611
    C     14.18799484     17.95984704      0.20753734      3.95898117
    C     15.14535301     16.84284560      0.03708664      3.95481760
    C     15.58450338     14.51428553     -0.53846113      4.08685825
    H     15.21314073     13.54009128     -0.85532623      0.93056845
    C     16.96053299     14.68274757     -0.29625361      3.97799106
    C     17.41135472     15.94711429      0.13018094      4.06265033
    C     17.88693392     13.56573523     -0.49831952      3.88256854
    H     17.44873689     12.64784400     -0.95102747      0.96660939
    H     18.47304220     16.08723510      0.32339279      0.91471222
    H     18.53294936     10.99063611     -0.03712518      0.92987188
    N     19.14457276     13.64945505     -0.19208947      5.27680749
    C     19.58238731     11.20991894     -0.22664958      4.13440064
    C     20.01261756     12.55043262     -0.34795771      3.79746529
    C     20.49921235     10.16956292     -0.30881962      4.06707505
    H     20.16830760      9.13852446     -0.19456189      0.91779212
    H     19.96014168      3.86318812      0.25032563      0.92081154
    C     21.38424376     12.80653009     -0.55488855      4.11883120
    C     20.25060761     -2.42864167      0.63355407      4.08877536
    H     20.76807886      6.20678747      0.02575079      0.91821387
    H     20.08958123     -0.32470204      1.07157298      0.91184915
    H     21.72166429     13.83660688     -0.64815329      0.91904037
    C     20.87922529     -3.43179578     -0.13259532      3.95514715
    C     20.56001778     -1.08599089      0.45259320      4.06588134
    C     21.00967646      4.06656763      0.04834225      4.12397041
    C     21.86681367     10.42231381     -0.52585079      4.02255518
    C     21.46008569      5.37373807     -0.08611767      4.07008630
    C     22.29000322     11.75878625     -0.65637446      4.07131004
    N     21.42903816      1.66912670      0.05114165      5.26919784
    C     21.79942458     -3.02670251     -1.12026980      4.09281932
    C     21.50066796     -0.68861515     -0.51742879      3.98472363
    N     22.37784279      8.04353179     -0.43967505      5.40713373
    C     21.90234459      2.98711531     -0.11338086      3.79639987
    C     22.83888889      9.30977931     -0.58183145      3.60197460
    C     22.09962757     -1.68414667     -1.31212534      4.09007608
    C     21.88310419      0.71485588     -0.69918185      3.88496503
    H     22.27720995     -3.77234963     -1.75219015      0.92457553
    H     23.34744874     11.96105007     -0.81660933      0.91550329
    C     22.81546879      5.64980022     -0.35105408      4.02729396
    C     23.28979838      7.04248027     -0.49442947      3.59930080
    H     22.81736271     -1.39405265     -2.07868488      0.92798443
    C     23.26600714      3.25787100     -0.35893976      4.13227373
    H     22.59477723      0.91678231     -1.53081709      0.96426811
    N     24.15430867      9.60279183     -0.76889901      5.38841042
    C     23.71005259      4.56999684     -0.46937982      4.06668836
    N     24.61877383      7.26185887     -0.68733031      5.38789409
    H     23.97459926      2.43444223     -0.42796332      0.92532098
    H     24.76321674      4.77823966     -0.64900832      0.91367271
    C     12.94312927     17.94865797     -0.45660668      4.09714392
    H     12.70782896     17.14317930     -1.14928982      0.92656468
    C     16.52368883     17.00345817      0.28883281      4.09315157
    H     16.90489088     17.97515499      0.59681103      0.92608622
    C     14.46765292     19.04773963      1.05896902      4.08522276
    C     14.69682120     15.56882455     -0.36874792      4.09436308
    H    -22.81743072     11.91031815     -0.67105956      0.91901296
    C    -22.95303629      5.81549587      0.27009513      4.09285592
    H    -22.00310430     14.25572228     -0.82781063      0.91547208
    H    -23.14093042      7.96115086      0.30652332      0.91460537
    C    -22.12320375      4.70423276      0.01335751      3.95499416
    C    -22.48726572      7.11400639      0.10852081      4.06252854
    C    -21.75649067     12.13141935     -0.57557577      4.11880736
    C    -21.30029606     13.43961417     -0.67030779      4.07088888
    N    -21.36863637      9.76846735     -0.21701130      5.27625628
    C    -20.79889711      4.95740379     -0.40063447      4.09451722
    C    -21.17053623      7.36000660     -0.32673377      3.97810363
    N    -20.36773614     16.13202465     -0.75158993      5.38862330
    C    -20.85034810     11.06983853     -0.37137764      3.79759610
    C    -20.33501586      6.25491077     -0.57419592      4.08712340
    C    -20.67004413      8.72190699     -0.53140327      3.88281613
    H    -20.11893789      4.12684714     -0.57833041      0.92718385
    C    -19.93121053     13.73971364     -0.53605092      4.02267438
    C    -19.45408013     15.13847798     -0.58026970      3.60204393
    H    -19.30827643      6.42363206     -0.89782166      0.93055722
    C    -19.47406231     11.36557474     -0.24794836      4.13505471
    H    -19.65994537      8.80290484     -0.99249765      0.96654476
    N    -18.57541019     17.70650813     -0.65497383      5.38804240
    C    -19.02991441     12.67974234     -0.32337614      4.06702511
    N    -18.12647243     15.37241801     -0.44153258      5.40727653
    H    -18.76064948     10.56472718     -0.06070577      0.92995408
    C    -17.71822130     16.66426805     -0.48064093      3.59940136
    H    -17.97141188     12.90673364     -0.20669420      0.91792080
    H    -16.50897864     19.08133130     -0.57753351      0.91355711
    C    -16.27528911     16.95265130     -0.33958283      4.02728228
    C    -15.79607832     18.27308310     -0.42482676      4.06659999
    C    -15.35056519     15.91578962     -0.10905185      4.07038702
    H    -15.71873236     14.89470315     -0.02441062      0.91839269
    C    -14.43896538     18.55012757     -0.31473240      4.13202652
    H    -14.08718787     19.57937558     -0.35675716      0.92533020
    C    -13.99399721     16.18409245      0.02414340      4.12419889
    C    -13.51479595     17.50404046     -0.10329369      3.79654071
    H    -13.28669976     15.37584943      0.19790486      0.92075151
    N    -12.13714018     17.75760136      0.05828960      5.26958867
    H    -12.09500763     19.19392275     -1.47884149      0.96440830
    C    -11.55193900     18.65652563     -0.66944009      3.88491200
    C    -10.14667367     19.03263264     -0.49107600      3.98460159
    H     -9.72688435     17.58411777      1.04964557      0.91217183
    C     -9.31610813     18.39391458      0.45008159      4.06557313
    H    -10.22456656     20.57257956     -2.00475554      0.92807514
    C     -9.60138200     20.07716769     -1.26106131      4.09010251
    C     -7.99940278     18.80138840      0.62712852      4.08878236
    C     -8.28907119     20.49139334     -1.07365892      4.09283244
    C     -7.46149847     19.87333020     -0.11466139      3.95482902
    H     -7.89591572     21.29937748     -1.68685577      0.92462085
    C      8.44830966    -21.29083957      0.20950631      3.95907923
    H      8.81479174    -22.90063958      1.61163776      0.92553910
    C      9.25408308    -22.06821109      1.06558755      4.08518825
    C      9.05780700    -20.21287938     -0.46687165      4.09717891
    C     10.59269580    -21.75241863      1.27409093      4.08387448
    H     11.18746979    -22.34933135      1.96510793      0.93057838
    C     10.39303277    -19.89892583     -0.26158803      4.06866109
    C     11.18394735    -20.65038996      0.62896189      3.97651475
    H     10.84468037    -19.05384906     -0.77741897      0.91413580
    C     12.56967053    -20.25707376      0.90868464      3.87548761
    H     13.11927477    -20.86758311      1.65820001      0.96065847
    N     13.09309380    -19.21128419      0.34857198      5.27832439
    H     13.88056150    -16.71869548      0.39384751      0.92124915
    C     14.41396784    -18.80111661      0.60980592      3.79448493
    C     14.69540084    -17.41920528      0.56463653      4.12042322
    C     15.47360072    -19.70593491      0.83933347      4.13084210
    H     15.27881880    -20.77687796      0.84467919      0.92545098
    C     15.98809930    -16.95784226      0.76637600      4.07223891
    H     16.20071407    -15.89038798      0.74128873      0.91859568
    C     16.76794421    -19.23349636      1.02929673      4.06745408
    C     17.04945669    -17.85477504      0.99490626      4.02649975
    H     17.58442548    -19.93156632      1.20584603      0.91501918
    C     18.42505834    -17.34319697      1.17323076      3.59972893
    H     18.08766136    -13.67296466      0.50766139      0.91860349
    N     18.63063157    -16.01235585      1.02315119      5.40861350
    H     18.44969246    -11.23304170      0.23996059      0.92733031
    C     19.07673379    -13.24649975      0.66758466      4.06723903
    N     19.42555932    -18.21716184      1.46604431      5.38856460
    C     19.27630368    -11.87859448      0.53185147      4.13757884
    C     19.89563864    -15.55509764      1.18219536      3.60156925
    C     20.13618326    -14.10583494      1.01565235      4.02551068
    H     18.98701975     -9.31326740      1.39388532      0.96486099
    C     19.94257451     -9.05164633      0.88632079      3.87935412
    C     20.55777410    -11.32434967      0.74354271      3.79398599
    N     20.94207099    -16.36928171      1.48952300      5.38921741
    C     20.17138701     -7.62661602      0.62362466      3.97684993
    N     20.81530706     -9.95236099      0.55728095      5.27493553
    C     21.38619530     -7.18233888      0.06708902      4.06827515
    H     22.15875391     -7.91507388     -0.15752742      0.91469078
    C     19.18560484     -6.66737211      0.92100730      4.08313228
    C     21.41491312    -13.54942872      1.20995942      4.06710989
    C     21.60291363     -5.83511415     -0.18311587      4.09617508
    H     18.23777729     -6.99113644      1.35004233      0.92986494
    C     21.62911569    -12.18453283      1.06173767      4.11755367
    C     19.40454617     -5.31643596      0.67102343      4.09033310
    C     20.61809150     -4.86904678      0.11311452      3.95557326
    H     18.61897894     -4.59868636      0.89942940      0.92667037
    H     22.23943033    -14.20854982      1.47573744      0.91639358
    H     22.61764320    -11.76140041      1.22714073      0.92038958
    H    -26.03220512     -5.25632162      1.21159695      0.91511471
    N    -25.48470573     -7.70937842      1.49196610      5.38857265
    H    -25.59301262     -2.84068630      0.84752864      0.92543921
    C    -25.01596709     -4.90541633      1.04040273      4.06756549
    N    -24.66340523     -9.95442463      1.50622861      5.38926398
    C    -24.76759146     -3.55036130      0.84879405      4.13090132
    C    -24.22590377     -7.29124651      1.19000801      3.59968817
    C    -23.96918766     -5.84602607      1.01275939      4.02624549
    H    -24.58479943     -0.93019706      1.65962690      0.96056531
    C    -23.77648548     -0.76657466      0.91361054      3.87537896
    C    -23.43321474     -9.46653836      1.18850598      3.60148746
    C    -23.44978532     -3.09461180      0.62524965      3.79459215
    H    -23.46268825    -12.16991157      1.47829087      0.91654939
    N    -23.18546311     -8.14431818      1.02971877      5.40856039
    C    -23.41883929      0.62752877      0.62754148      3.97617951
    N    -23.13469902     -1.74837905      0.36104018      5.27829827
    C    -22.36238783      0.92965582     -0.25328657      4.06879392
    H    -21.84832248      0.11165465     -0.75418325      0.91418975
    C    -24.08591580      1.69613383      1.25462265      4.08388152
    C    -22.47802402    -11.79453119      1.20540848      4.06719870
    C    -22.65721274     -5.38481958      0.79100688      4.07208439
    C    -21.96726759      2.24163741     -0.46867959      4.09727086
    H    -24.90783904      1.48549684      1.93841264      0.93040636
    C    -22.30902510    -10.41026124      1.01073334      4.02561843
    C    -22.39992129     -4.03664095      0.58847585      4.12043580
    C    -23.69038972      3.01164242      1.03633957      4.08512971
    C    -22.60643096      3.31490311      0.18770352      3.95932447
    H    -24.19986441      3.81234895      1.56863689      0.92545894
    C    -21.41239552    -12.67260546      1.04930315      4.11825107
    H    -21.84389713     -6.10834770      0.77221247      0.91856931
    H    -21.54907889    -13.73904697      1.21548111      0.92046959
    C    -21.03355048     -9.93442971      0.65213831      4.06692616
    H    -21.38241754     -3.68845478      0.42320848      0.92131545
    H    -20.89941505     -8.86585403      0.49115348      0.91858216
    C    -20.12952913    -12.18656150      0.72261354      3.79351543
    C    -19.95799827    -10.80145159      0.50797803      4.13732971
    N    -19.07743875    -13.10388886      0.53302100      5.27506087
    H    -18.98437472    -10.41746774      0.20834588      0.92735793
    C    -17.85933978    -12.80368925      0.86050964      3.87908370
    H    -17.60456820    -11.84605236      1.36750354      0.96459640
    C    -16.74157122    -13.71636655      0.59744242      3.97691208
    H    -15.22432269    -12.35475803      1.31410642      0.92974448
    C    -15.41752897    -13.33925033      0.88903844      4.08289187
    C    -16.96420678    -14.99297041      0.04643319      4.06853043
    H    -17.98521256    -15.29808854     -0.17408318      0.91472835
    C    -14.57556577    -15.48039050      0.08616512      3.95582710
    C    -13.45960817    -16.42303639     -0.15932471      3.95522981
    C    -12.55586686    -18.36149690     -1.32608382      4.08998492
    H    -12.66582387    -19.13664006     -2.08372225      0.92795328
    C    -11.38815151    -18.32648588     -0.54085117      3.98476235
    C    -11.25932443    -17.30252527      0.41743957      4.06600058
    C    -10.35992361    -19.35607682     -0.71821945      3.88500249
    H    -10.54339711    -20.08526889     -1.53882261      0.96413238
    H    -10.35988797    -17.26479453      1.02864281      0.91183631
    H     -9.90161349    -22.02079601     -0.40430560      0.92531268
    N     -9.29986701    -19.42408123      0.02456461      5.26917038
    C     -8.83445949    -21.81257212     -0.35203153      4.13234731
    C     -8.39093793    -20.49032139     -0.13305927      3.79630657
    C     -7.91607254    -22.84996592     -0.45781717      4.06654246
    H     -8.25914636    -23.87058709     -0.61701161      0.91354705
    C     -7.00920528    -20.24739087      0.00801791      4.12419223
    H     -6.66353656    -19.23180076      0.18885595      0.92075185
    C     -6.53343366    -22.60650301     -0.36049995      4.02755887
    C     -6.09854297    -21.28854206     -0.12113242      4.07008948
    N     -6.03500393    -24.97430657     -0.68403216      5.38792517
    C     -5.56181535    -23.71184759     -0.50003394      3.59926275
    H     -5.03079370    -21.09825753     -0.02603485      0.91827120
    N     -4.23908220    -23.42025481     -0.45087879      5.40703286
    N     -3.77489746    -25.73931893     -0.77112019      5.38841272
    C     -3.37209327    -24.45243695     -0.58992315      3.60205119
    H     -2.18223599    -22.05385495     -0.20306929      0.91782772
    C     -1.92236097    -24.16707312     -0.53455985      4.02256151
    C     -1.45594925    -22.85721742     -0.31565743      4.06697439
    C     -0.97753576    -25.20307189     -0.66325663      4.07133171
    H     -1.33230065    -26.21930916     -0.82520490      0.91548367
    C     -0.09631793    -22.58596078     -0.22790515      4.13428140
    H      0.23922275    -21.56833489     -0.03517006      0.92987476
    C      0.38281772    -24.94498661     -0.55689158      4.11886975
    C      0.84835343    -23.63020290     -0.34616213      3.79751829
    H      1.10506819    -25.75347513     -0.64808194      0.91905120
    N      2.23410610    -23.43073191     -0.18419522      5.27667792
    H      2.21916787    -21.46067653     -0.94077636      0.96671913
    C      2.79285489    -22.30007375     -0.48723697      3.88263944
    C      4.22320021    -22.05676149     -0.28265372      3.97802410
    H      4.68503145    -24.06779027      0.33987183      0.91477005
    C      5.09371649    -23.07831421      0.14464096      4.06257013
    H      4.10526798    -19.97237225     -0.84175320      0.93059806
    C      4.76432240    -20.78052823     -0.52579193      4.08679896
    C      6.45265366    -22.83680282      0.30122510      4.09309132
    C      6.12149967    -20.53826062     -0.35862685      4.09431643
    C      7.00176768    -21.56320461      0.04568469      3.95487059
    H      6.50366670    -19.53466479     -0.53342670      0.92724958
    C    -15.90516510    -15.85381720     -0.20336136      4.09642436
    H    -16.10980284    -16.84283885     -0.60907321      0.92756316
    C    -12.27068144    -16.36671415      0.59693987      4.08877502
    H    -12.15931826    -15.60478433      1.36594571      0.92418690
    C    -14.35654857    -14.20308117      0.63812446      4.09008090
    C    -13.57142548    -17.43298816     -1.13606615      4.09289877
    C     20.64847659    -17.67601752      1.62275633      3.68370425
    H     21.47710639    -18.35916219      1.87425756      0.97229988
    C     -5.10500647    -25.93911964     -0.80363484      3.68331696
    H     -5.46052729    -26.97373114     -0.94426067      0.97249634
    C    -25.63855987     -9.03779226      1.64872363      3.68360054
    H    -26.64576004     -9.40472596      1.90862539      0.97242604
    C    -19.87616047     17.38425562     -0.77444996      3.68305488
    H    -20.59479071     18.21045185     -0.90651666      0.97232942
    C      5.00600287     26.76081396      1.65874069      3.68356286
    H      5.18967327     27.81625966      1.92121438      0.97250065
    C     24.99053174      8.54939826     -0.80709837      3.68329798
    H     26.06380741      8.75729083     -0.95350030      0.97248857
    C     -5.42140826     21.40897095      3.68694665      3.95263791
    H     -4.86666019     19.38571055      4.23120851      0.92896935
    C     -4.51599110     20.40574944      4.08797812      4.08600722
    C     -4.91482613     22.71240786      3.49857800      4.09093779
    C     -3.16895733     20.68876392      4.27949302      4.09550103
    H     -2.48696809     19.89436767      4.58264671      0.93334098
    C     -3.56829148     22.99523431      3.68045125      4.06154648
    C     -2.66573520     21.98584121      4.06751722      3.97717507
    H     -3.19045001     24.00356225      3.52540253      0.91202500
    C     -1.23838796     22.26548120      4.24390425      3.88463020
    H     -0.62420174     21.42319745      4.63532066      0.96899110
    N     -0.72513197     23.42495601      3.97307931      5.26944438
    H      0.34679370     25.74828788      4.56149111      0.91953139
    C      0.65762375     23.65913856      4.11108866      3.79573138
    C      1.08992555     24.97025149      4.40042644      4.11322950
    C      1.62666317     22.65364271      3.89688867      4.13143485
    H      1.31372810     21.64800131      3.62095003      0.92966789
    C      2.44416300     25.25747327      4.51228980      4.06944377
    H      2.77483641     26.26752535      4.74588506      0.91283196
    C      2.97906796     22.95298975      4.00100213      4.06863458
    C      3.41258832     24.25504861      4.31439807      4.02238573
    H      3.72638309     22.17984622      3.82957527      0.91867549
    C      4.85488200     24.56143445      4.41261368      3.59585563
    N      5.23712173     25.84465065      4.65476776      5.38746060
    N      5.73913133     23.54671275      4.25398609      5.40714347
    C      7.05599111     23.85169326      4.34376130      3.60047898
    H      6.54961775     21.23825242      3.87105351      0.91796734
    N      7.51001824     25.11317378      4.57597975      5.38908274
    C      7.61649487     21.43897572      3.95217146      4.06407391
    C      8.04062306     22.75976962      4.19135859      4.02036738
    C      8.53643152     20.40851239      3.80923749      4.11481945
    H      8.20013423     19.38988455      3.62832124      0.92087718
    C      9.42142159     23.01563918      4.28528439      4.06836485
    H      9.75532936     24.03751502      4.45709683      0.91775362
    C      9.91702267     20.66327893      3.93447166      3.79646036
    C     10.34941704     21.98875210      4.16447156      4.14200326
    N     10.82161486     19.60344892      3.73068745      5.27510870
    H     11.41448460     22.20874412      4.22334706      0.93102175
    C     11.95738543     19.55610129      4.35423955      3.88424394
    H     12.23995695     20.30704795      5.12564542      0.96441806
    C     12.93717162     18.49860440      4.08889268      3.97686807
    H     14.47152704     19.36801779      5.33806216      0.92980097
    C     14.21549717     18.54206342      4.67526887      4.08818242
    C     12.62761621     17.41515395      3.24388855      4.06623533
    H     11.64486009     17.37794511      2.77810767      0.91411813
    C     14.84185147     16.45241355      3.58517934      3.95652438
    C     15.82693127     15.37408106      3.34619716      3.95269366
    C     16.33352837     13.06441049      2.75375956      4.09568908
    H     15.98871357     12.07618838      2.44943585      0.93325938
    C     17.70755109     13.27882220      2.96974716      3.97711176
    C     18.12829809     14.56593921      3.35638169      4.06155028
    C     18.66457649     12.18304731      2.79795670      3.88468965
    H     18.24440249     11.22985556      2.40481686      0.96881250
    H     19.19000885     14.74428589      3.51294388      0.91194882
    H     19.40021590      9.66421831      3.41944166      0.92959441
    N     19.92398846     12.31837446      3.07510796      5.26960390
    C     20.42881367      9.89533789      3.14765961      4.13140219
    C     20.81780676     11.23743800      2.93926656      3.79574113
    C     21.36281107      8.87259868      3.04253555      4.06867600
    H     21.06462312      7.83870706      3.20931258      0.91869208
    H     20.89187508      2.56347674      3.42949749      0.92082559
    C     22.17082224     11.51773987      2.65603990      4.11328234
    C     21.01222024     -3.56982980      4.03044376      4.09531480
    H     21.66446862      4.91839933      3.18926713      0.91794227
    H     20.88656625     -1.43230440      4.26156555      0.91406819
    H     22.47539320     12.55043831      2.50021468      0.91947292
    C     21.68649661     -4.65899109      3.43908356      3.95649037
    C     21.40735935     -2.26181441      3.78742730      4.06606235
    C     21.94007460      2.78264271      3.23783660      4.11471312
    C     22.70834661      9.14725462      2.73341482      4.02211598
    C     22.37083671      4.09536168      3.09610977      4.06380239
    C     23.09520780     10.48737696      2.54276184      4.06940358
    N     22.38784799      0.40036068      3.30037274      5.27542316
    C     22.77476621     -4.37338208      2.58951249      4.09140079
    C     22.48925853     -1.98234285      2.93013286      3.97721377
    N     23.25582384      6.77724328      2.78885075      5.40717181
    C     22.84965289      1.71519354      3.09727053      3.79661681
    C     23.69301557      8.05025613      2.63025229      3.59584845
    C     23.16274877     -3.06384981      2.33299416      4.08829925
    C     22.90773996     -0.60287335      2.66451323      3.88413175
    H     23.30606145     -5.18718428      2.10068065      0.92535138
    H     24.13646878     10.70518214      2.31365811      0.91279298
    C     23.72401945      4.38966344      2.84331342      4.02057165
    C     24.17687236      5.78854919      2.69146897      3.60027513
    H     23.99696530     -2.86811965      1.66008552      0.92976585
    C     24.21125058      2.00463716      2.85432717      4.14228940
    H     23.68800718     -0.46655509      1.88256727      0.96426820
    N     24.99454641      8.36010881      2.38236866      5.38754810
    C     24.63498820      3.32227045      2.73466635      4.06852317
    N     25.49512762      6.02531695      2.45150676      5.38918046
    H     24.93365233      1.19253494      2.78466957      0.93085523
    H     25.68489325      3.54502695      2.55218553      0.91767436
    C     13.55716674     16.41309608      3.00310094      4.09533336
    H     13.29319324     15.59639733      2.33412858      0.92655622
    C     17.20842646     15.58950266      3.53594292      4.09104545
    H     17.56549408     16.57744201      3.82018488      0.92822896
    C     15.14942357     17.54477473      4.42172581      4.09133230
    C     15.41317848     14.08823048      2.94332267      4.08639820
    H    -22.16182407     13.22463542      2.48418967      0.91971837
    C    -22.13446693      7.13697681      3.55073191      4.09152822
    H    -21.39801926     15.58764344      2.30653858      0.91307068
    H    -22.40304071      9.27450922      3.52605123      0.91227907
    C    -21.25458821      6.05174122      3.35304234      3.95286921
    C    -21.71593119      8.44690839      3.36309639      4.06158092
    C    -21.11482078     13.47768459      2.63693164      4.11383409
    C    -20.68688338     14.79464851      2.52924027      4.06904082
    N    -20.68123687     11.13106867      3.05388939      5.26995765
    C    -19.93954462      6.34123746      2.93635422      4.08611714
    C    -20.39653930      8.73098002      2.96094478      3.97651204
    N    -19.79601033     17.50882936      2.39645667      5.38760768
    C    -20.19370930     12.44588440      2.91399191      3.79548238
    C    -19.52110054      7.65156493      2.73932608      4.09535107
    C    -19.93266820     10.10848748      2.77933613      3.88374655
    H    -19.22881267      5.53139365      2.78505272      0.92882338
    C    -19.33276478     15.13053007      2.71801420      4.02246356
    C    -18.87646144     16.53313487      2.62905418      3.59549997
    H    -18.49689301      7.85103438      2.42412008      0.93340798
    C    -18.83603416     12.78050288      3.11580640      4.13095894
    H    -18.89895590     10.22214843      2.38182434      0.96878706
    N    -18.02369603     19.10873795      2.48419323      5.38895254
    C    -18.41939464     14.10161669      3.01559469      4.06845360
    N    -17.55503303     16.78895566      2.78738792      5.40679447