  972
Geometry Step: 1260
    C      2.69965710     24.26123931     11.25310761      3.97334252
    C     -1.08864559     29.23528611     10.45151248      4.09616342
    C     -1.13848628     30.62318056     10.46199954      4.06834133
    C      5.16713200     22.87669206     11.48917799      3.80425289
    C      3.99757390     22.20515619     11.07663686      4.11190279
    C      2.79050614     22.88331091     10.97022927      4.09080735
    H     -1.99072142     28.68028568     10.20221854      0.92731526
    H     -2.06860388     31.14502375     10.24668534      0.91603920
    H      4.04736892     21.14100759     10.85720931      0.92060091
    H      1.90746530     22.34321191     10.63459202      0.92826626
    C      1.40138512     24.97302879     11.16246082      3.95343327
    C      1.34361050     26.35620966     10.92481076      4.11580056
    C      0.12558224     27.06023193     10.89043859      3.96002045
    C     -1.06527098     26.32441487     11.05236166      4.09614886
    C     -1.02604806     24.94994710     11.27635529      4.06234167
    C      0.19135349     24.27782030     11.34732131      4.09112320
    H      2.27345573     26.89444805     10.75625066      0.92751706
    H      0.20603491     23.21349568     11.57195252      0.92834882
    N      6.37050345     22.14745104     11.52335084      5.28228658
    C     24.53198428     13.82765544     11.00122053      3.95216528
    C     19.53188439     13.89764484     11.53626046      3.98180193
    C     27.01507649     15.20638993     10.81361365      3.98553391
    C     26.85984901     13.91015023     10.28477363      4.08987050
    C     25.64925568     13.23233914     10.38298317      4.09393097
    C     17.13245918     15.40862388     11.76539641      3.80183430
    C     18.29484066     15.98348685     11.21193761      4.13419446
    C     19.46122931     15.23475252     11.09422599      4.08828563
    H     27.71092300     13.42748743      9.80396334      0.93116521
    H     25.56756196     12.22922001      9.96795116      0.92695659
    H     18.27117005     17.01027201     10.85045564      0.92591822
    H     20.33398049     15.70249528     10.64328153      0.92810275
    C     20.80164329     13.12791439     11.44822630      3.95143602
    C     20.82271621     11.72386251     11.56256098      4.09067508
    C     22.02049820     11.01918200     11.45732165      4.06321851
    C     23.22487671     11.68763489     11.24554475      4.09809172
    C     23.24968927     13.09264524     11.15702744      3.96017481
    C     22.03143567     13.78525147     11.25750966      4.11675862
    H     19.90025383     11.17260607     11.73149001      0.92786904
    H     22.04647010     14.86989795     11.18394119      0.92842829
    N     15.92048076     16.12391670     11.85455913      5.26834813
    C     28.32388195     15.86830067     10.74835175      3.88789858
    H     29.11510782     15.30467189     10.20442887      0.96708507
    C     14.66016475     18.13867778     12.31428311      4.02560276
    C     13.44522575     17.63412677     11.79798010      3.88486129
    N     12.30482579     18.33370789     11.77091494      5.29783095
    C     12.29822361     19.59385174     12.28559832      3.81489515
    C      8.75725696     20.59050272     11.43513029      4.04398400
    C      9.94437585     19.87813271     11.45732061      4.12278470
    C     15.89488502     17.34738276     12.28263161      3.88247568
    C      0.05317495     35.67727054     10.14923461      4.10937300
    C      0.03806487     37.05824152     10.27879300      4.11567856
    C     29.87801314     17.55502825     11.26517522      3.85166173
    C     30.07989408     18.94575305     11.10469365      3.93332724
    N     31.29151370     19.51905461     11.09679307      5.29395153
    C     32.39356740     18.74305355     11.29235963      3.83371444
    H     29.21490818     19.60207974     10.95013000      0.94431155
    N     28.56765455     17.02681335     11.28075452      5.27306953
    C      0.09686611     28.54028846     10.77309040      3.95278195
    C      0.00248797     31.38312515     10.78279211      3.98058795
    C      1.19643995     30.69668131     11.07203040      4.08468503
    C      1.24127171     29.30875933     11.06847297      4.08655950
    C      3.87652821     24.93169852     11.64226070      4.08361931
    C      5.08772782     24.26019145     11.75841875      4.12134708
    H      2.17370829     28.81528162     11.33414373      0.92800486
    H      2.09150957     31.26520535     11.32460844      0.93252289
    H      3.83764163     25.99560764     11.87126741      0.93091374
    H      5.98271606     24.80863033     12.04565185      0.92706421
    C     -0.03681214     32.84511169     10.84315270      3.88098295
    H      0.90537575     33.33974957     11.17191035      0.96953112
    C     24.68175073     15.13729863     11.50120922      4.08959244
    C     25.89561960     15.80910852     11.42024057      4.06369368
    C     18.35346666     13.32830152     12.06459646      4.08064653
    C     17.17270004     14.05622900     12.15796061      4.11460529
    H     25.99748102     16.80739134     11.84147184      0.91514920
    H     18.36129540     12.30018610     12.42060557      0.92722584
    H     16.28422221     13.60332355     12.59163422      0.91749651
    H     23.84166677     15.61884852     11.99784727      0.92650308
    C     13.46086167     20.16629626     12.83969065      4.11604434
    C     14.64490160     19.44064710     12.84567220      4.06053845
    H     15.55706305     19.87055303     13.25983514      0.92875999
    C     11.02449088     20.34626488     12.23468864      3.82035140
    C      8.64096440     21.76185309     12.20563327      4.02158790
    C      9.77620849     22.17390338     12.93749862      3.90320884
    N     10.93541974     21.50065469     12.94969734      5.29630964
    C      7.38618565     22.51680375     12.24255746      3.87838613
    C     -1.05823702     37.70135275     10.89275599      3.83593033
    C     -1.04829592     34.94260537     10.62847766      3.84666761
    C     -2.14731489     35.66378818     11.15023376      3.93278114
    N     -2.14914081     36.99569661     11.29942131      5.29128345
    H     -3.03252986     35.11819064     11.49888353      0.94084697
    N     -1.10105119     33.53399237     10.56948920      5.27386446
    C     32.27058211     17.35352403     11.50093279      4.11279556
    C     31.01682915     16.75574803     11.48634777      4.10301878
    H     30.90524953     15.68970804     11.68213477      0.92756422
    H      9.73031574     23.09505295     13.53462997      0.95120232
    H      7.90854101     20.26189872     10.83772828      0.91140350
    H     10.06019934     18.96361248     10.87979275      0.90805609
    H     13.41597029     21.17382699     13.24688122      0.90954376
    H     13.42226065     16.61720243     11.38884791      0.93594278
    H      7.35809306     23.39822358     12.91938812      0.96138770
    H     16.80906685     17.85680919     12.66208641      0.96521053
    H     33.16519574     16.76050358     11.68088876      0.91163758
    C      2.47043348     52.33938474     11.98923481      3.95595806
    C      5.08674697     53.43133301     11.89723267      3.98063870
    C      4.83016784     52.13261049     11.42073077      4.09016721
    C      3.54806839     51.59756824     11.46756889      4.09318941
    C      0.26152951     47.45766201     11.54838547      4.09619233
    C      0.02541503     46.08867664     11.58988346      4.06838238
    H      5.64951185     51.54365315     11.01038509      0.93029960
    H      3.37485088     50.59720186     11.07539332      0.92726996
    H      1.12713913     47.83480690     11.00563699      0.92837196
    H      0.70831227     45.40062359     11.09419552      0.91616052
    C     -1.31089322     52.08760801     12.02612805      4.06579203
    C     -1.50410738     50.70914602     12.07958271      4.09407717
    C     -0.40350493     49.83217592     12.10611815      3.95570697
    C      0.88867091     50.38266950     12.07559516      4.11045419
    C      1.09993225     51.77271713     12.02337021      3.95733974
    C     -0.02423601     52.61979630     11.99845980      4.09402121
    H     -2.51476930     50.30748578     12.08567331      0.92782720
    C      6.43516526     53.99494739     11.82638987      3.89182008
    H      7.20705635     53.36752772     11.32786870      0.96547532
    C     -0.86853225     41.91378634     11.50150214      3.85367428
    C      0.10875504     41.16228515     10.80623343      3.92469385
    N      0.03801987     39.84099832     10.61408720      5.29915976
    C     -1.03151726     39.16391997     11.11514656      3.82241969
    H      0.98997010     41.68088982     10.40749387      0.94587829
    N     -0.65287825     43.30549943     11.56089455      5.29157519
    C      8.01807689     55.69106846     12.17429112      3.85204710
    C      8.18554777     57.07479676     11.94447513      3.93008639
    N      9.38229190     57.65321107     11.78898598      5.29252077
    C     10.50118956     56.88415818     11.88884698      3.83115288
    H      7.29929304     57.71431130     11.84892005      0.94327451
    N      6.70986879     55.17903279     12.28146393      5.27566736
    C     -0.62107072     48.36438791     12.16938943      3.95869948
    C      2.73265694     53.64164339     12.46448290      4.08984465
    C      4.01214553     54.17715322     12.42007652      4.06266944
    C     -1.09216003     45.56249184     12.26870145      3.97710615
    C     -1.96231663     46.46589345     12.90764960      4.08410845
    C     -1.73624803     47.83653579     12.84846042      4.08730574
    H      4.20607997     55.18123913     12.79222757      0.91343679
    H     -2.42245062     48.51251993     13.35555278      0.92932151
    H     -2.82672328     46.08569439     13.45123810      0.93177977
    H      1.74764798     49.71678816     12.13338820      0.92818734
    H      1.92440042     54.23418516     12.89012047      0.92715891
    C     -1.34990331     44.11588161     12.29815985      3.87998355
    H     -2.16961719     43.77387560     12.96885585      0.96705279
    C     -2.04375217     39.83385470     11.83758500      4.11252638
    C     -1.97338617     41.20891958     12.02899811      4.09397859
    H     -2.75801126     41.72389474     12.58190157      0.92593113
    C     10.41745452     55.50396515     12.16623321      4.11263906
    C      9.17559395     54.90095537     12.31189191      4.10479648
    H      9.09403293     53.84104955     12.55071274      0.92735716
    H     11.33235929     54.92373494     12.26872497      0.91038406
    H     -2.87148785     39.25792531     12.24903910      0.91148852
    C     33.71935706     19.40843037     11.30242376      3.83729358
    C     33.85697706     20.76452922     10.93976387      4.11653884
    N     34.80528352     18.66993213     11.66360331      5.29115170
    C     41.57256830     24.29286358     12.06767659      3.95658097
    C     39.03915325     23.00236062     11.94999228      3.98059415
    C     39.17293191     24.29899308     12.48477644      4.08164329
    C     40.41048416     24.93206792     12.54138723      4.08651035
    C     43.31218501     29.23263663     11.52674785      4.09676531
    C     43.40350420     30.61254291     11.42183354      4.06920155
    H     38.28974205     24.80689735     12.87227948      0.93149269
    H     40.48328669     25.92293894     12.98757476      0.92913468
    H     42.35575871     28.75960425     11.31790520      0.92749182
    H     42.52918283     31.20164353     11.15177482      0.91546457
    C     45.32561691     24.77287566     12.28690442      4.06297331
    C     45.44688330     26.15503991     12.16329678      4.09409527
    C     44.30470238     26.97080123     12.04264666      3.95797260
    C     43.04567978     26.33853031     12.04800720      4.11480053
    C     42.90760366     24.94300922     12.13642066      3.95810520
    C     44.07292051     24.16469960     12.26744830      4.08988152
    H     43.99694708     23.08433936     12.37092326      0.92747554
    C     37.72275960     22.34980520     11.92739228      3.87837272
    H     36.89265421     22.93168087     12.38738724      0.96668428
    C     44.66395204     35.55050224     10.67724663      3.94535818
    N     44.70147176     36.88437197     10.55831135      5.29309692
    H     45.43753140     34.98057031     10.14566774      0.94981601
    C     35.10444421     21.37522404     10.98209896      4.10789001
    C     44.42395995     28.44574438     11.89700884      3.95503223
    C     41.43313848     23.00301808     11.51500054      4.09617060
    C     40.19668075     22.37039334     11.45511490      4.06892211
    C     44.61964676     31.27931857     11.66018014      3.97798200
    C     45.74408843     30.50124768     11.99281979      4.08709763
    C     45.64475312     29.11910283     12.11756195      4.08704631
    H     40.11290788     21.37322773     11.02763580      0.91608235
    H     46.53071755     28.55843504     12.40704220      0.92712499
    H     46.70126910     30.99090161     12.17358118      0.93112327
    H     42.14472738     26.94045000     11.96176931      0.92757656
    H     42.30873165     22.49746600     11.11188362      0.92673972
    C     44.68982680     32.74363183     11.59392974      3.89071624
    H     45.70054419     33.20061770     11.68346007      0.96463717
    C     43.75024018     37.62875454     11.18503646      3.83369105
    C     43.66855159     34.86708646     11.41545212      3.84774553
    C     42.65274769     35.63590710     12.01472592      4.08599491
    C     42.70856096     37.01860194     11.91553287      4.11316417
    H     41.86379909     35.14712655     12.58405288      0.91768348
    N     43.61417531     33.46309686     11.49155810      5.27229910
    C     36.21995251     20.62224831     11.39456868      3.84746777
    C     36.01018068     19.25631227     11.69811362      3.93382297
    N     37.52395877     21.16536500     11.43692170      5.27249352
    H     41.95823417     37.64380841     12.39524455      0.91095917
    C     11.80530042     57.55401645     11.70201955      3.83276546
    C     11.87328728     58.95143082     11.52601680      4.11276263
    N     12.93021316     56.78771785     11.71219073      5.29152221
    C     19.40709395     62.65080764     10.61207890      3.95403331
    C     24.37483701     63.13758226     11.13773135      3.97576044
    C     17.04171546     61.09313817     10.50811633      3.98546135
    C     17.13030237     62.31716490      9.82014818      4.09046093
    C     18.28673770     63.08427272      9.87757699      4.09484827
    C     26.92892890     61.91714777     11.36826020      3.80188877
    C     25.82700828     61.19985708     10.85838514      4.11293279
    C     24.57862306     61.79461448     10.75833961      4.09174216
    H     16.26784530     62.67459371      9.25805948      0.93026105
    H     18.32552298     64.03137464      9.34267640      0.92611722
    H     25.96547321     60.16402504     10.55606314      0.92051720
    H     23.75336153     61.21582706     10.34934796      0.92770745
    C     23.03592280     63.76193336     11.00715481      3.94952673
    C     22.87657399     65.16024071     10.96298430      4.09226883
    C     21.61125823     65.72599895     10.82031519      4.06618439
    C     20.48231609     64.91888005     10.69889746      4.10060458
    C     20.60500749     63.51684359     10.73579323      3.95981981
    C     21.88225148     62.96355007     10.90753372      4.11342826
    H     23.74432357     65.81302213     11.02781069      0.92857138
    H     21.97473058     61.88102823     10.95331691      0.92709002
    N     28.17156471     61.26197813     11.38274873      5.28004280
    C     15.76798063     60.37169108     10.53193975      3.88979935
    H     14.96645225     60.78610800      9.88065666      0.96582456
    C     41.15378772     52.82916918     11.36642210      3.97987322
    C     44.49968740     47.53779294     10.95999754      4.09384809
    C     44.40991584     46.15375026     10.88305825      4.06612745
    C     38.80789917     54.41652316     11.45467016      3.80408746
    C     40.01429478     54.94824346     10.95644217      4.13430814
    C     41.16070356     54.16029471     10.90592491      4.08675596
    H     45.45047807     48.01756610     10.73673707      0.92734176
    H     45.28282904     45.55914130     10.62065408      0.91672698
    H     40.03613624     55.97380277     10.59111660      0.92578888
    H     42.07636662     54.58470857     10.49735253      0.92877811
    C     42.39365566     52.01224858     11.40288666      3.95216434
    C     42.33420412     50.61182595     11.31063745      4.11607217
    C     43.48096245     49.80418541     11.41128975      3.95934480
    C     44.72099735     50.43900101     11.62014245      4.09244736
    C     44.80064354     51.82868657     11.68933916      4.06342264
    C     43.65453365     52.61357550     11.57428527      4.09672140
    H     41.36942984     50.14330392     11.13306430      0.92735112
    N     37.62339699     55.18397874     11.50153130      5.26919634
    C     36.42096316     57.21024301     12.03086490      4.02558519
    C     35.25262456     56.82422715     11.33553733      3.88450944
    N     34.12050997     57.53609015     11.33795277      5.29845793
    C     34.07160792     58.68370565     12.06871894      3.81672546
    C     30.56097990     59.77214816     11.21618883      4.04372669
    C     31.75847317     59.07902024     11.17952185      4.12362848
    C     37.63161827     56.38103796     11.99374073      3.88437753
    C     44.00537287     41.86813336     10.93748874      3.85091358
    C     44.88188130     41.09036450     10.15774665      4.09461233
    C     44.79140724     39.70733186     10.21999163      4.12065652
    C     43.84573490     39.10031210     11.07358990      3.83449850
    N     44.12489378     43.27174466     10.92657921      5.27229015
    C     13.10352603     59.57095119     11.36752577      4.10526338
    C     19.33939958     61.39238990     11.24398759      4.08818383
    C     18.17608891     60.63372476     11.20581059      4.06464917
    C     25.48784335     63.85603710     11.62167500      4.08297842
    C     26.74115400     63.26544792     11.74005356      4.12281269
    H     18.11896438     59.68412830     11.73493562      0.91392259
    H     25.36679918     64.89487160     11.92380284      0.92948391
    H     27.58362779     63.85333561     12.10063385      0.92687688
    H     20.19166911     61.03229263     11.81787602      0.92463639
    C     43.38278965     48.32643325     11.30787117      3.95312460
    C     43.19096179     45.49362501     11.13216323      3.97925681
    C     42.06791578     46.27707372     11.45635811      4.08561780
    C     42.16596640     47.65983534     11.55314920      4.08974440
    C     39.93356863     52.30118076     11.83413661      4.08127822
    C     38.77481523     53.06804534     11.85841356      4.11531369
    H     41.28525703     48.22997255     11.84067840      0.92856668
    H     41.11419236     45.78794551     11.65428610      0.93225130
    H     39.90100063     51.28165838     12.21229622      0.92762888
    H     37.84863539     52.64957308     12.24519089      0.91775856
    H     45.62454540     49.84588738     11.74561219      0.92839034
    C     43.08392901     44.03276061     11.06649243      3.88855155
    H     42.05453355     43.61240617     11.13096190      0.96737076
    C     35.18601488     59.13189092     12.80669547      4.11567060
    C     36.36725966     58.40274052     12.77362559      4.05746163
    H     37.23930174     58.73092453     13.33931300      0.92827082
    C     32.79764567     59.43708825     12.06409232      3.82043723
    C     30.39617953     60.82106466     12.14004658      4.02062765
    C     31.49107748     61.12716938     12.97614152      3.90417822
    N     32.65924613     60.46923955     12.93988532      5.29565800
    C     29.12288460     61.54574409     12.21638772      3.87756111
    N     43.00565755     39.85015535     11.83692738      5.28908968
    C     43.09042086     41.18501763     11.77583336      3.94399387
    H     42.43181628     41.75404698     12.44414840      0.95018815
    C     14.26923906     58.77931193     11.37492497      3.85190555
    C     14.11958569     57.38658396     11.56559021      3.93293716
    N     15.56002227     59.33776010     11.28749277      5.27361083
    H     31.40490223     61.94509146     13.70433964      0.95284902
    H     29.73741725     59.51644250     10.55139808      0.91127541
    H     31.91330127     58.26203339     10.47814922      0.90796464
    H     35.10275581     60.04277120     13.39451147      0.90933875
    H     35.26258166     55.89302263     10.75698941      0.93679224
    H     29.01854153     62.30870505     13.01953585      0.96065401
    H     38.54798525     56.82311357     12.44690152      0.96334566
    H     22.01640953      9.93417758     11.54954450      0.93192141
    H     24.14962524     11.11817415     11.17841976      0.93063330
    H     46.22000673     24.16105839     12.38986327      0.93032363
    H     46.44023645     26.59769645     12.15344566      0.92784956
    H     45.76770946     52.30388522     11.84911111      0.93198895
    H     43.73550378     53.69648304     11.64756075      0.93050364
    H     21.50326311     66.80948932     10.79938678      0.93186852
    H     19.49964967     65.37572446     10.59692319      0.92996061
    H     -2.17120331     52.75389140     12.00633005      0.93043485
    H      0.10877387     53.69814076     11.94344364      0.92753033
    H     -2.02877325     26.82934239     11.03184238      0.92962773
    H     -1.95360473     24.39931327     11.42144778      0.93090918
    H     10.95322563     59.53217021     11.53622102      0.91030550
    H     13.17269296     60.65443532     11.27653527      0.92731107
    H     15.00957388     56.74670195     11.57008594      0.94299768
    H     36.85861698     18.63898872     12.01866710      0.94232656
    H     32.97736994     21.32160925     10.62346618      0.91265453
    H     35.22757689     22.41401052     10.67863669      0.92505452
    H      0.89368284     35.17018354      9.67654357      0.92412108
    H      0.87392282     37.65943216      9.92645606      0.91038199
    H     45.59854918     41.57724641      9.49858892      0.91881042
    H     45.44194383     39.07874936      9.61466963      0.91198944
    C      2.55873560     24.05752558     14.79577411      3.97208387
    C     -1.06852834     29.08822672     13.77750605      4.09368930
    C     -1.08719918     30.47668952     13.78006368      4.06654724
    C      5.00075628     22.63666919     14.99045074      3.80540173
    C      3.84513321     22.01563599     14.47608084      4.10759965
    C      2.64396222     22.70903685     14.40161847      4.08646748
    H     -1.96154166     28.54892264     13.46518429      0.92796589
    H     -1.98749633     31.01410853     13.49028725      0.91537835
    H      3.90012031     20.97766803     14.15609306      0.91995856
    H      1.76063336     22.21293949     14.00257902      0.92961190
    C      1.27497604     24.79251358     14.69974563      3.95091692
    C      1.26011708     26.16745231     14.42470249      4.11128928
    C      0.06183320     26.89592437     14.33241884      3.95680812
    C     -1.15087927     26.19621589     14.48394181      4.09633892
    C     -1.15178933     24.83046809     14.75861067      4.06334349
    C      0.04667846     24.13082641     14.88108239      4.09157661
    H      2.20787046     26.67384882     14.25585729      0.92967791
    H      0.03174085     23.07410490     15.14045641      0.93014401
    N      6.18935518     21.88143767     15.04924534      5.28121787
    C     24.32750730     13.53896997     14.55185573      3.95475713
    C     19.34937988     13.75533739     15.13671957      3.97779900
    C     26.85620122     14.81510629     14.34382255      3.97734498
    C     26.67955655     13.48691698     13.91731166      4.08698871
    C     25.44273856     12.86437294     14.01665451      4.09064319
    C     16.98446769     15.28961858     15.37236192      3.80304205
    C     18.13464214     15.83792004     14.77104789      4.13124964
    C     19.28745937     15.07286428     14.64220690      4.08103031
    H     27.53086613     12.94480756     13.50664582      0.93309241
    H     25.33543654     11.84234523     13.66083241      0.92833822
    H     18.10165055     16.84659907     14.36241790      0.93059367
    H     20.14453526     15.49753373     14.12410809      0.92752880
    C     20.58569029     12.95023453     14.99688454      3.95035061
    C     20.54564083     11.54340954     15.01729457      4.09645740
    C     21.71860984     10.80391327     14.88485034      4.06422780
    C     22.94561260     11.44304513     14.72724930      4.09191911
    C     23.02370869     12.84923509     14.69915900      3.95405397
    C     21.83151510     13.57797785     14.83544452      4.11057902
    H     19.59412863     11.02594862     15.12116060      0.93110883
    H     21.87122010     14.66458705     14.81744214      0.93044849
    N     15.77906636     16.01260949     15.44651976      5.26582204
    C     28.17700931     15.44008636     14.25224395      3.88664487
    H     28.97313922     14.82291552     13.77801714      0.96906614
    C     14.52550491     18.02042466     15.87597775      4.02766592
    C     13.32676871     17.47733472     15.35925876      3.88131537
    N     12.15322548     18.11617982     15.38937172      5.29489141
    C     12.09801530     19.35312965     15.95538581      3.81430911
    C      8.48650319     20.16492830     15.22615589      4.04427136
    C      9.69731312     19.49252516     15.24497559      4.11976796
    C     15.76987201     17.24722232     15.83526367      3.89089659
    C      0.25094971     35.45984881     13.59853057      4.10421678
    C      0.35490230     36.83779309     13.70318583      4.11022960
    C     29.69969795     17.19345699     14.63726558      3.85032317
    C     29.83433887     18.58937800     14.45678497      3.92994749
    N     31.01267711     19.22417885     14.46018820      5.28828853
    C     32.14551969     18.49924351     14.66811911      3.82704771
    H     28.93609545     19.19064850     14.27195808      0.94405588
    N     28.40631664     16.63917573     14.68724024      5.27371293
    C      0.08004422     28.36959753     14.17186822      3.95490879
    C      0.05367346     31.20812641     14.16070150      3.98053732
    C      1.22255507     30.49691073     14.48899188      4.08615581
    C      1.23351234     29.10948074     14.50157711      4.09036166
    C      3.72846838     24.68905580     15.26045043      4.08451837
    C      4.93034828     23.99623867     15.36177104      4.12660705
    H      2.13925027     28.59515614     14.81517431      0.92767116
    H      2.11562994     31.04802680     14.78161605      0.93158696
    H      3.68769872     25.73256847     15.57042657      0.93152062
    H      5.82345860     24.51247509     15.70900186      0.92967921
    C      0.06272474     32.66785375     14.24216504      3.88134120
    H      1.05864344     33.11995622     14.44143992      0.96733237
    C     24.50405401     14.88042278     14.95356414      4.09343360
    C     25.73930851     15.50601906     14.85373050      4.06550936
    C     18.19767746     13.22484155     15.75133173      4.08364993
    C     17.02444058     13.96321979     15.84136769      4.11594690
    H     25.86084009     16.53728397     15.17985273      0.91649417
    H     18.22577345     12.22348059     16.17698332      0.92854904
    H     16.14238226     13.54009246     16.31756396      0.91885247
    H     23.66493147     15.43551082     15.37001784      0.92888155
    C     13.24961008     19.97144722     16.48443230      4.11643590
    C     14.46730261     19.30608288     16.43841903      4.06391945
    H     15.37037679     19.76408200     16.84289716      0.92917466
    C     10.78265497     20.02880787     15.97127815      3.81558483
    C      8.35330986     21.35919101     15.95824581      4.02283371
    C      9.47352034     21.80251376     16.69322212      3.90647543
    N     10.65867706     21.17592948     16.69111813      5.29531833
    C      7.10284476     22.12404755     15.93873090      3.88390389
    C     -0.61757090     37.55931866     14.42477792      3.83280795
    C     -0.84249165     34.80912907     14.20330444      3.84632203
    C     -1.80486104     35.60636924     14.86230465      3.93216107
    N     -1.68682648     36.93600629     14.99024987      5.29290353
    H     -2.67329615     35.13367892     15.33884628      0.94340673
    N     -0.99945249     33.40717595     14.13635473      5.27634747
    C     32.09585776     17.10018701     14.84311879      4.11429298
    C     30.87538355     16.44017960     14.82922324      4.10899401
    H     30.82612022     15.36299177     14.98655657      0.93058102
    H      9.39743609     22.72294286     17.28884184      0.95299924
    H      7.63665951     19.78749437     14.66144501      0.91141587
    H      9.83406835     18.56480719     14.69489011      0.90668581
    H     13.16921528     20.96398675     16.92211550      0.91020770
    H     13.34877849     16.47946504     14.90550761      0.93518553
    H      6.98868730     22.91418027     16.71298366      0.95960671
    H     16.69178804     17.75825912     16.19161768      0.96362897
    H     33.02467532     16.55463381     14.99486240      0.91181068
    C      2.87250801     52.33437848     15.49398947      3.95432235
    C      5.39278281     53.64582165     15.39345381      3.98221927