  918
Geometry Step: 7504
    C     -5.33788246     21.25624617      0.30872969      3.81078469
    H     -4.90434154     19.35973557      1.25306544      0.90872146
    C     -4.48292466     20.28921908      0.87735246      4.11917225
    N     -4.85378958     22.43895439     -0.16087397      5.29911445
    C     -3.11947541     20.53700783      0.95046420      4.07108146
    H     -2.44302989     19.80085605      1.38592483      0.92953030
    C     -3.53742595     22.66890116     -0.09144167      3.88350802
    C     -2.61004842     21.74711104      0.44779692      4.02251679
    H     -3.17104645     23.62686850     -0.47782586      0.93261299
    C     -1.17641285     22.04235509      0.49077502      3.88409080
    H     -0.54091671     21.29362154      1.01499065      0.96596484
    N     -0.68362441     23.12190401     -0.03261933      5.27196071
    H      0.38784241     25.51525510      0.02657797      0.91889303
    C      0.70157124     23.37882351     -0.00981142      3.79552798
    C      1.13163972     24.72229551     -0.01028137      4.11288161
    C      1.67119273     22.35263423     -0.06205396      4.13097498
    H      1.35763796     21.31133963     -0.11238390      0.92903326
    C      2.48598222     25.02883130     -0.02474958      4.06918533
    H      2.81526104     26.06594435     -0.01571679      0.91229027
    C      3.02361179     22.66973747     -0.08960044      4.06867533
    C      3.45592780     24.00919068     -0.06792651      4.02146370
    H      3.77096962     21.87939566     -0.13937364      0.91825196
    C      4.89670865     24.33583855     -0.11111045      3.59586365
    N      5.26887706     25.64473144     -0.11828322      5.38729116
    N      5.78875468     23.31590342     -0.14564616      5.40655604
    C      7.10290578     23.64322113     -0.18825363      3.60003746
    H      6.62930970     20.97837875     -0.16249944      0.91722789
    N      7.54617026     24.92951049     -0.19798366      5.38870702
    C      7.69393216     21.20420038     -0.18584059      4.06398981
    C      8.10006567     22.55167181     -0.21248531      4.01988072
    C      8.62838097     20.17667368     -0.20160824      4.11201238
    H      8.30604344     19.13799066     -0.17752039      0.92011058
    C      9.47789617     22.83712875     -0.25433866      4.06888511
    H      9.79719090     23.87736063     -0.28874390      0.91697827
    C     10.00790868     20.46657017     -0.21201592      3.79827694
    C     10.42138243     21.81727202     -0.25147929      4.14262860
    N     10.92219966     19.39661020     -0.28105483      5.27797515
    H     11.48204332     22.05857940     -0.30433149      0.93048282
    C     12.10360207     19.47978355      0.24858485      3.88716224
    H     12.42795295     20.36764157      0.83676844      0.96505817
    C     13.08269155     18.39792981      0.11760285      4.02283867
    H     14.69003317     19.48683375      1.09325160      0.95029175
    C     14.39823351     18.54579328      0.60800897      3.89967215
    C     12.75259424     17.17352853     -0.49314846      4.03969709
    H     11.74684996     17.02403886     -0.88231100      0.91351225
    C     15.01013184     16.41286733     -0.07484793      3.81295050
    C     16.05709461     15.37085154     -0.15594900      3.81562031
    C     16.65114787     13.21876373     -0.79153719      3.91310517
    H     16.35013455     12.26824269     -1.25388725      0.95351881
    C     17.96609868     13.36159214     -0.29813301      4.02207604
    C     18.31101766     14.59992555      0.27495165      4.04024680
    C     18.91760091     12.25083546     -0.37857524      3.88353285
    H     18.56449676     11.34873037     -0.92713053      0.96678264
    H     19.31761623     14.74822923      0.66147788      0.90876715
    H     19.47202198      9.66895218      0.23417627      0.92936307
    N     20.09995500     12.31938676      0.14864793      5.26816207
    C     20.53773771      9.88295769      0.17194342      4.13119992
    C     20.98303517     11.22231299      0.10935831      3.79600066
    C     21.45631172      8.84020113      0.19526074      4.06859548
    H     21.11297892      7.80847047      0.25279334      0.91868536
    H     20.95837427      2.43266989      0.26511456      0.91985293
    C     22.36995899     11.47835778      0.09221227      4.11343188
    N     21.10107133     -3.71344021      0.58419033      5.30278994
    H     21.71868425      4.80307810      0.27230616      0.91815399
    H     20.86498336     -1.66335074      0.87046890      0.93569386
    H     22.71733464     12.50829945      0.04654219      0.91949472
    C     21.89326072     -4.71057298      0.10109410      3.81338259
    C     21.52095110     -2.44759584      0.47510127      3.87665101
    C     22.02012004      2.66931333      0.27714721      4.11339154
    C     22.84057072      9.09234933      0.15934188      4.02232796
    C     22.44552483      3.99257481      0.27432193      4.06464139
    C     23.27942909     10.42933216      0.10331206      4.06924478
    N     22.49131655      0.28707417      0.30952490      5.28033587
    C     23.13653809     -4.43104959     -0.50149113      4.11593409
    C     22.74882502     -2.08019938     -0.12349219      4.02137784
    N     23.35402810      6.70806774      0.23203717      5.40687351
    C     22.95775092      1.61659166      0.25610873      3.79571455
    C     23.81644327      7.98264467      0.20289747      3.59637936
    C     23.56126115     -3.11510431     -0.61873354      4.06334553
    C     23.16571545     -0.68039207     -0.23188922      3.88409715
    H     23.74208801     -5.25137651     -0.87901526      0.90586289
    H     24.34883846     10.62932394      0.08261194      0.91181975
    C     23.81635703      4.31184516      0.28629629      4.01955667
    C     24.27767505      5.71695713      0.27573772      3.60054486
    H     24.51648804     -2.87905509     -1.08827013      0.92860466
    C     24.33544099      1.93234560      0.27638278      4.14237712
    H     24.09545145     -0.49514627     -0.81613289      0.96578583
    N     25.14175068      8.29031858      0.21556100      5.38731850
    C     24.74947970      3.25767278      0.29739428      4.06896309
    N     25.61770878      5.95304664      0.29792810      5.38974549
    H     25.07561549      1.13359840      0.29747488      0.93169933
    H     25.81108403      3.49808195      0.31846346      0.91720824
    C     13.71561493     16.18187737     -0.58752621      4.11832487
    H     13.49099153     15.22423622     -1.05161372      0.90811766
    C     17.35795724     15.60444604      0.34035688      4.12347870
    H     17.59231884     16.57108770      0.78064302      0.90847647
    N     15.33696415     17.59446062      0.51469379      5.29787135
    N     15.72027418     14.17915652     -0.71964789      5.29427234
    H    -22.06909986     13.06878635      0.23451641      0.91889376
    N    -22.12133150      6.97647498      0.31288238      5.29865496
    H    -21.28260343     15.42961000      0.29336593      0.91183008
    H    -22.26829929      9.02362528      0.67523420      0.93276870
    C    -21.37588098      5.96657326     -0.21402468      3.81034791
    C    -21.65177747      8.22782587      0.24171337      3.88437460
    C    -21.00503142     13.29476262      0.23526021      4.11252176
    C    -20.56565970     14.61175850      0.25828411      4.06968547
    N    -20.57232459     10.91331866      0.19462309      5.27139702
    C    -20.13945935      6.22054290     -0.84362784      4.11851499
    C    -20.41601303      8.56651787     -0.35718228      4.02346871
    N    -19.66555416     17.30453215      0.36493574      5.38720555
    C    -20.07856585     12.23300938      0.17771086      3.79562489
    C    -19.66265906      7.52126536     -0.91976451      4.07014442
    C    -19.93752747      9.95021240     -0.39760421      3.88402767
    H    -19.57517443      5.39133284     -1.26399790      0.90841928
    C    -19.19063237     14.91499663      0.25531028      4.02208750
    C    -18.72976806     16.31863876      0.30614054      3.59661044
    H    -18.70875079      7.73657970     -1.40208540      0.92938236
    C    -18.69767017     12.53149407      0.18432881      4.13179462
    H    -19.00490645     10.12556654     -0.97983962      0.96585449
    N    -17.88974117     18.89922172      0.40645895      5.38980207
    C    -18.26784927     13.85264296      0.22209888      4.06901997
    N    -17.39667839     16.56627336      0.29508829      5.40722232
    H    -17.96847920     11.72289794      0.19043214      0.92956343
    C    -17.00875788     17.86395797      0.34456932      3.60068298
    H    -17.20355465     14.08267337      0.23556736      0.91894446
    H    -15.86010395     20.30663959      0.41120991      0.91726046
    C    -15.56323521     18.17449512      0.32153890      4.01950794
    C    -15.12006175     19.51018150      0.35508940      4.06834664
    C    -14.59997111     17.14983405      0.26137930      4.06453197
    H    -14.93668709     16.11478532      0.23975381      0.91826100
    C    -13.76629349     19.81793427      0.31737312      4.14201304
    H    -13.44556821     20.85788070      0.36046549      0.93171704
    C    -13.24239153     17.44587769      0.24661543      4.11370096
    C    -12.80299415     18.78551673      0.25659722      3.79585543
    H    -12.50499538     16.64735765      0.20051269      0.92034743
    N    -11.41898018     19.04610938      0.30637725      5.28041281
    H    -11.54111770     20.85550027     -0.77415140      0.96517461
    C    -10.91762972     20.12627319     -0.20904760      3.88464554
    C     -9.49571658     20.45504882     -0.08743361      4.02055383
    H     -8.93640946     18.58577530      0.86245708      0.93557822
    C     -8.57509183     19.55365459      0.49605253      3.87662668
    H     -9.66620736     22.40911488     -1.00764953      0.92820120
    C     -8.99347004     21.68425772     -0.54888378      4.06383998
    N     -7.26861481     19.81172619      0.62565819      5.30315703
    C     -7.64109957     21.96283373     -0.40991574      4.11557273
    C     -6.78986672     21.00620866      0.17958783      3.81451908
    H     -7.22362119     22.90410777     -0.75876852      0.90554223
    C      6.90867417    -21.06871845     -0.03902053      3.81478305
    H      7.32202303    -22.91993472      0.99733919      0.90551811
    C      7.74841101    -21.99982283      0.60533533      4.11595517
    N      7.39936049    -19.89990662     -0.53719796      5.30196947
    C      9.10145541    -21.72287804      0.74321299      4.06376675
    H      9.76545620    -22.42859578      1.24291547      0.92827876
    C      8.70602621    -19.64349764     -0.40795543      3.87597584
    C      9.61622917    -20.52156546      0.22577381      4.02185660
    H      9.07647575    -18.69649118     -0.81730604      0.93572266
    C     11.04069284    -20.19893489      0.33768932      3.88562482
    H     11.65477159    -20.89953363      0.94779856      0.96523842
    N     11.55527370    -19.15640281     -0.23799730      5.27873511
    H     12.66509160    -16.76507668     -0.23164293      0.91938738
    C     12.94161674    -18.90680681     -0.19925107      3.79722700
    C     13.39410919    -17.57233040     -0.24503322      4.11266335
    C     13.89420904    -19.95078416     -0.21939574      4.14297250
    H     13.56202401    -20.98808382     -0.22226147      0.93125421
    C     14.75437176    -17.29128209     -0.27185124      4.06406049
    H     15.10196960    -16.25982277     -0.29179074      0.91741526
    C     15.25142705    -19.65879561     -0.26982902      4.06927266
    C     15.70743340    -18.32718543     -0.28868714      4.02010291
    H     15.98352537    -20.46423083     -0.29393665      0.91720589
    C     17.15496667    -18.02711536     -0.32255504      3.60029337
    H     17.34444130    -14.26425086     -0.30003540      0.91824324
    N     17.54721812    -16.73054147     -0.29631943      5.40641855
    H     18.08781162    -11.89967109     -0.27723621      0.92939106
    C     18.40638458    -14.02520583     -0.27460345      4.06819085
    N     18.03265448    -19.06583324     -0.36994446      5.38874957
    C     18.82456280    -12.70066465     -0.24876925      4.13043268
    C     18.88046110    -16.48575818     -0.31335409      3.59566452
    C     19.33767501    -15.08060003     -0.27994101      4.02203491
    H     19.05281080    -10.28971281      0.85155323      0.96515284
    C     20.01055070    -10.10548194      0.31536683      3.88325919
    C     20.20246395    -12.39011156     -0.22331703      3.79543966
    N     19.81387919    -17.47485110     -0.35901462      5.38724923
    C     20.47029227     -8.71547566      0.29567302      4.02140092
    N     20.68547732    -11.06549359     -0.23767520      5.27370847
    C     21.71993015     -8.35300688     -0.25829596      3.88375933
    H     22.36358705     -9.13516017     -0.67705319      0.93323958
    C     19.68212544     -7.68587957      0.83969867      4.07041908
    C     20.71023191    -14.76666587     -0.26761394      4.06921771
    N     22.17092483     -7.09362052     -0.30465775      5.29942853
    H     18.71617291     -7.92017067      1.28816360      0.92966071
    C     21.13806563    -13.44540603     -0.25271682      4.11331571
    C     20.14074640     -6.37732355      0.79092957      4.11895155
    C     21.39301041     -6.09899214      0.20440129      3.81076984
    H     19.54973530     -5.56064472      1.19894277      0.90866961
    H     21.43428976    -15.57887086     -0.28034786      0.91233804
    H     22.20028436    -13.21091372     -0.23783848      0.91928805
    H    -25.88482986     -3.58547292     -0.46484547      0.91718224
    N    -25.69170992     -6.04990294     -0.51962708      5.38866585
    H    -25.14125074     -1.22336734     -0.36674449      0.93140235
    C    -24.82347274     -3.34963177     -0.40859248      4.06875793
    N    -25.20891382     -8.38800885     -0.50986095      5.38752128
    C    -24.40578314     -2.02645944     -0.34365084      4.14286081
    C    -24.35396926     -5.81133655     -0.44837490      3.60034192
    C    -23.89362952     -4.40674409     -0.40062276      4.02019013
    H    -24.14730003      0.39011904      0.84175903      0.96495931
    C    -23.21907074      0.57430698      0.25467087      3.88569560
    C    -23.88592268     -8.07711107     -0.44116794      3.59573356
    C    -23.02806229     -1.71755153     -0.28132937      3.79671438
    H    -24.39969538    -10.73342446     -0.44027538      0.91228363
    N    -23.42876463     -6.80097588     -0.41010575      5.40633090
    C    -22.78377804      1.96964350      0.15582471      4.02180466
    N    -22.55625898     -0.39007683     -0.30550679      5.27892074
    C    -21.56020436      2.31806641     -0.46263511      3.87622490
    H    -20.92346923      1.52357619     -0.86886456      0.93575434
    C    -23.56880920      3.01608945      0.67022016      4.06349780
    C    -23.33240207    -10.52378590     -0.40872098      4.06902056
    C    -22.52260368     -4.09332770     -0.34107029      4.06393235
    N    -21.12432950      3.57699877     -0.58241722      5.30196929
    H    -24.51795944      2.79481355      1.15881235      0.92827087
    C    -22.90469660     -9.18211799     -0.40034896      4.02218580
    C    -22.09301587     -2.77254561     -0.30000986      4.11313390
    C    -23.12567140      4.32561633      0.54483473      4.11612592
    C    -21.89278503      4.58646691     -0.08688984      3.81489106
    H    -23.71038869      5.15508471      0.93506759      0.90568455
    C    -22.41363921    -11.56490436     -0.39188952      4.11371443
    H    -21.79890429     -4.90657125     -0.33986132      0.91766159
    H    -22.75259487    -12.59867060     -0.39402970      0.91961582
    C    -21.52258038     -8.91766503     -0.37037749      4.06820176
    H    -21.03136548     -2.53977903     -0.25386779      0.91963524
    H    -21.18724743     -7.88180819     -0.38013297      0.91821465
    C    -21.02982932    -11.29698362     -0.33853194      3.79590609
    C    -20.59568623     -9.95261145     -0.34092858      4.13056607
    N    -20.13504506    -12.38602335     -0.35897879      5.26922645
    H    -19.53069913     -9.72684223     -0.35056765      0.92919201
    C    -18.97916186    -12.31047973      0.22390920      3.88350490
    H    -18.66315425    -11.40937838      0.79596552      0.96689290
    C    -18.01221953    -13.40971471      0.18815465      4.02135754
    H    -16.47520030    -12.30660488      1.25571437      0.95392053
    C    -16.73349462    -13.25634656      0.76657734      3.91356269
    C    -18.30484196    -14.64727736     -0.41465306      4.03976418
    H    -19.28286965    -14.80471923     -0.86561776      0.90918785
    C    -16.07402839    -15.39614943      0.15589620      3.81467080
    C    -15.01128977    -16.42537087      0.13440826      3.81368280
    C    -14.33767771    -18.55166821     -0.50983265      3.89869630
    H    -14.59332825    -19.49885740     -1.00360318      0.95063325
    C    -13.04684210    -18.38209002      0.03651047      4.02190307
    C    -12.76499240    -17.15302393      0.66162318      4.04005203
    C    -12.04543833    -19.44715959     -0.05923976      3.88647793
    H    -12.34235334    -20.34598414     -0.64558405      0.96597111
    H    -11.78082812    -16.98741493      1.09682715      0.91361706
    H    -11.40542744    -22.00535305      0.53888338      0.93113570
    N    -10.87558596    -19.33984029      0.49137400      5.27713312
    C    -10.34651072    -21.75320990      0.50216482      4.14272629
    C     -9.94659753    -20.39879708      0.44992494      3.79712540
    C     -9.39314369    -22.76272315      0.53709726      4.06830114
    H     -9.70290981    -23.80534069      0.58405184      0.91678206
    C     -8.56971669    -20.09580864      0.45265061      4.11322335
    H     -8.25687822    -19.05453830      0.41498996      0.92054425
    C     -8.01740887    -22.46522385      0.50791045      4.01969496
    C     -7.62442846    -21.11439802      0.46324306      4.06419055
    N     -7.46181496    -24.83780188      0.56833900      5.38897637
    C     -7.01599020    -23.55348881      0.51222407      3.60071454
    H     -6.56189015    -20.87775563      0.44748118      0.91797122
    N     -5.70129124    -23.23026681      0.44657688      5.40668021
    N     -5.18898097    -25.56145143      0.48290896      5.38708799
    C     -4.81307477    -24.25478927      0.43113503      3.59633318
    H     -3.65020943    -21.80760957      0.40409191      0.91881948
    C     -3.36988437    -23.94319546      0.35557993      4.02221709
    C     -2.91679532    -22.61062331      0.34975985      4.06850687
    C     -2.41602572    -24.97794511      0.30511666      4.06964955
    H     -2.76111311    -26.00985104      0.31622552      0.91188964
    C     -1.55980774    -22.31553644      0.29027355      4.13142195
    H     -1.22777960    -21.27900344      0.32009328      0.92957531
    C     -1.05785145    -24.69366804      0.25897796      4.11302805
    C     -0.60736043    -23.35731037      0.23275851      3.79548325
    H     -0.32735614    -25.49866223      0.21674254      0.91894535
    N      0.78169374    -23.12093071      0.23138313      5.27152425
    H      0.65902579    -21.33159360     -0.88270568      0.96583473
    C      1.28719307    -22.06966040     -0.33487832      3.88401639
    C      2.72503774    -21.79126648     -0.30663276      4.02333155
    H      3.26686892    -23.63803663      0.69413530      0.93292894
    C      3.64252571    -22.69868310      0.27236507      3.88413905
    H      2.57916743    -19.88363298     -1.32389272      0.92958276
    C      3.24744951    -20.60734498     -0.85633797      4.07028030
    N      4.96038959    -22.47578617      0.34127567      5.29872284
    C      4.61237522    -20.36765932     -0.78603389      4.11822610
    C      5.45631832    -21.31618878     -0.17135548      3.81000192
    H      5.04336371    -19.45734790     -1.19644571      0.90859915
    C    -17.33737868    -15.64026882     -0.42520424      4.12325991
    H    -17.53147855    -16.60619255     -0.88620204      0.90867989
    C    -13.74676539    -16.17611537      0.70967291      4.11924758
    H    -13.55888050    -15.21536962      1.18349613      0.90791444
    N    -15.78850734    -14.20525994      0.74878118      5.29421405
    N    -15.29326293    -17.61386035     -0.46448786      5.29822324
    C     19.33578044    -18.73227331     -0.38845981      3.68059438
    H     20.07033077    -19.55450084     -0.42891703      0.97511576
    C     -6.51268875    -25.79056628      0.55222374      3.67988242
    H     -6.84545637    -26.84144023      0.59772114      0.97483488
    C    -26.05674815     -7.34410598     -0.54806280      3.68041537
    H    -27.13564722     -7.56725895     -0.60629780      0.97514754
    C    -19.19199817     18.56274721      0.41390287      3.67930677
    H    -19.92896512     19.38213046      0.46312592      0.97475509
    C      6.59322275     25.87849939     -0.16108162      3.68062917
    H      6.92357255     26.93111701     -0.16612080      0.97481390
    C     25.98769515      7.24563020      0.26628649      3.67943714
    H     27.06848310      7.46626493      0.28169204      0.97487525
    C     -6.65205332     21.36180313      3.65033660      3.81376626
    H     -6.09508538     19.56141922      4.70984078      0.90686567
    C     -5.73928945     20.50101946      4.29405270      4.11852325
    N     -6.24846812     22.54588950      3.11278292      5.30026616
    C     -4.40547110     20.86665423      4.39403396      4.06326380
    H     -3.68625263     20.21594674      4.89173066      0.92721655
    C     -4.95588301     22.88514258      3.19875856      3.88007569
    C     -3.97908768     22.08434916      3.83516416      4.02501756
    H     -4.65518442     23.83973204      2.75180641      0.93414242
    C     -2.57300952     22.48500189      3.91436094      3.88358746
    H     -1.92178204     21.83557264      4.54155829      0.96397030
    N     -2.10994167     23.53034399      3.30121131      5.27764772
    H     -1.09143455     25.96212449      3.20658574      0.91791657
    C     -0.73364810     23.83540949      3.33373588      3.79757470
    C     -0.33193852     25.18394111      3.23805345      4.11902586
    C      0.25906342     22.83072241      3.37115597      4.13604184
    H     -0.03101948     21.78198593      3.41011447      0.92992949
    C      1.01685135     25.51663251      3.20730704      4.07023318
    H      1.32315532     26.55880094      3.13730100      0.91530842
    C      1.60391055     23.17237438      3.31698470      4.06665380
    C      2.00897928     24.51805445      3.23790477      4.02331624
    H      2.36628638     22.39515687      3.32626454      0.91713833
    C      3.44529698     24.85967732      3.15549075      3.60150676
    N      3.80877933     26.16798397      3.07186294      5.38767090
    N      4.34286436     23.84502988      3.16060198      5.40739613
    C      5.65453925     24.17416738      3.07888849      3.59997084
    H      5.15667930     21.52355107      3.11943517      0.91761456
    N      6.09060371     25.46079196      3.00585188      5.38703660
    C      6.22418550     21.73584532      3.09659552      4.07089905
    C      6.64738530     23.07885148      3.07157595      4.02467506
    C      7.14419207     20.69678603      3.07194884      4.12127614
    H      6.80828428     19.66214357      3.09129175      0.92033364
    C      8.02777842     23.34774357      3.01884994      4.06708191
    H      8.35981436     24.38342119      2.97504215      0.91322129
    C      8.52768678     20.97019530      3.05098012      3.79818982
    C      8.95808577     22.31468819      3.01237403      4.13020752
    N      9.42599534     19.88631267      2.98804372      5.26987417
    H     10.02038958     22.54041415      2.93952743      0.92491378
    C     10.59210071     19.95289531      3.55035829      3.88629272
    H     10.90782622     20.83545277      4.15069289      0.96395586
    C     11.56760867     18.86429092      3.45343960      4.02700391
    H     13.12420159     19.95364471      4.50684653      0.94998002
    C     12.85912547     19.01425893      4.00268826      3.91103076
    C     11.27181518     17.64269723      2.81946605      4.03971366
    H     10.28684493     17.49206173      2.38111398      0.90996375
    C     13.51702339     16.89265957      3.32434671      3.81437959
    C     14.59285199     15.87884395      3.26151681      3.81497695
    C     15.29905974     13.77330313      2.58154822      3.90171928
    H     15.05335865     12.82653302      2.08238630      0.94870169
    C     16.59840139     13.96934309      3.09778719      4.02318065
    C     16.86575017     15.19955596      3.72656600      4.04355267
    C     17.64523754     12.95014572      2.96386648      3.88150742
    H     17.37856439     12.03099340      2.39524462      0.96368596
    H     17.85848373     15.38672872      4.13251629      0.91209222
    H     18.56634099     10.43655628      3.59822277      0.92694730
    N     18.82870675     13.14439886      3.45625688      5.27516848
    C     19.58981241     10.79042504      3.48640278      4.13535228
    C     19.84593853     12.17516169      3.38018836      3.79414121
    C     20.64360853      9.88342005      3.48103489      4.06627713
    H     20.44642662      8.81577534      3.56485861      0.91848763
    H     20.99232015      3.49693158      3.49296765      0.91986387
    C     21.18253843     12.61700345      3.28841543      4.11779692
    N     21.73382888     -2.51714335      4.05280735      5.30048835
    H     21.45268556      5.93979792      3.36191936      0.91817574
    H     21.35932035     -0.49546427      4.38842924      0.93555071
    H     21.38270398     13.68294462      3.20267161      0.92054320
    C     22.58505600     -3.44566956      3.53553576      3.81541890
    C     22.06612872     -1.22368640      3.97358539      3.88586200
    C     22.01351682      3.86808101      3.54990062      4.11826784
    C     21.97758426     10.31918111      3.37030227      4.02463023
    C     22.27172184      5.23045337      3.46867288      4.07192106
    C     22.22578136     11.70176263      3.26858127      4.06751231
    N     22.76043519      1.57373037      3.76525183      5.27970995
    C     23.80331671     -3.06793617      2.93535169      4.11620724
    C     23.26420688     -0.75912951      3.38457319      4.01827109
    N     22.81340897      8.02912609      3.43510328      5.40707856
    C     23.07382550      2.94499766      3.66722321      3.79552783
    C     23.09645448      9.35265634      3.36182944      3.60160924
    C     24.14186775     -1.72363934      2.85956922      4.06223583
    C     23.56579586      0.67127718      3.29525849      3.87611605
    H     24.45953794     -3.83486994      2.53049791      0.90873316
    H     23.25524863     12.04500017      3.18385084      0.91568991
    C     23.59045742      5.72047565      3.52302351      4.02485167
    C     23.86343028      7.17168208      3.44376060      3.59990200
    H     25.07652879     -1.41162956      2.39268720      0.92848921
    C     24.39735704      3.43260515      3.73790161      4.13065104
    H     24.50763869      0.93860199      2.76811326      0.96044779
    N     24.36693790      9.83477549      3.28397577      5.38881854
    C     24.64449456      4.79786384      3.66262306      4.06788995
    N     25.15835293      7.58513930      3.38882085      5.38855901
    H     25.22491020      2.73813915      3.87034324      0.92536041
    H     25.66545751      5.17218888      3.71149832      0.91423717
    C     12.24451019     16.65577404      2.76167891      4.12005461
    H     12.04670595     15.70228835      2.27709194      0.90782106
    C     15.86500800     16.15299053      3.80671441      4.11887578
    H     16.04523641     17.11614153      4.27850996      0.90777750
    N     13.80750657     18.07153218      3.93896893      5.29611323
    N     14.32288041     14.68948374      2.65902007      5.29731324
    H    -22.30296814     11.35664480      3.35896370      0.91955165
    N    -21.77873550      5.41352602      3.72467295      5.30219581
    H    -21.82203922     13.79715479      3.39029554      0.91562875
    H    -22.01845867      7.45232060      4.07218230      0.93580671
    C    -21.00637111      4.43671915      3.17325602      3.81994405
    C    -21.37470778      6.68413527      3.62783677      3.88095586
    C    -21.27672385     11.71482416      3.40330061      4.11791412
    C    -21.00688814     13.07614908      3.41136672      4.06787928
    N    -20.55235916      9.40980366      3.45150762      5.27775258
    C    -19.79826338      4.74426435      2.51530234      4.11560561
    C    -20.18086451      7.08053006      2.98167018      4.01946347
    N    -20.46634140     15.86046808      3.45270339      5.38878672
    C    -20.22260821     10.77731549      3.41005219      3.79345023
    C    -19.38615445      6.06783150      2.41790667      4.05994925
    C    -19.81992998      8.49957876      2.88896346      3.88175589
    H    -19.20868329      3.94102632      2.07955598      0.90650779
    C    -19.68198343     13.55155802      3.45888245      4.02467261
    C    -19.40802890     15.00468037      3.47203512      3.60178568
    H    -18.45839329      6.32391965      1.90591007      0.92697866
    C    -18.89171926     11.24644073      3.46631379      4.13523837
    H    -18.91515347      8.74864699      2.28995347      0.96232155
    N    -18.91845398     17.67566706      3.52902117      5.38862672
    C    -18.63352467     12.61271531      3.49050231      4.06615875
    N    -18.11998629     15.42593287      3.50365883      5.40685762